mp_id,formula,sites,composition,a_edge (angstrom),b_edge (angstrom),c_edge (angstrom),alpha_ang (deg),beta_ang (deg),gamma_ang (deg),crystal_system,space_group,total_magnetisation (bohr),energy_per_atom (eV/atom),formation_energy (eV/atom),energy_above_hull (eV/atom),stable,density (g/cc),band_gap (eV),direct_bandgap,volume (cubic-angstrom),bulk_modulus (GPa),shear_modulus (GPa)
mp-10706,ZrRu3C,5,Zr1 Ru3 C1,4.0755165,4.0755165,4.0755165,90.0,90.0,90.0,cubic,Pm-3m,4.1e-06,-9.44637781,-0.326463062,0.0,True,9.970170724,0.0,False,67.69365555,258.82,157.252
mp-1016883,ZrZnO3,5,Zr1 Zn1 O3,4.143062,4.143062,4.143062,90.0,90.0,90.0,cubic,Pm-3m,0.0675725,-7.176823658,-2.246558207,0.757972091,False,4.778115583,0.0,False,71.11550484,149.835,45.061
mp-29400,CsFeCl3,10,Cs1 Fe1 Cl3,5.848597,7.500080164,7.50008,60.00000072,90.0,90.0,hex_,P6_3/mmc,8.0000004,-4.629992513,-1.647120451,0.0,True,3.439917916,0.0,False,284.9142252,-4.293,39.33
mp-570223,CsGeBr3,5,Cs1 Ge1 Br3,5.53332714,5.53332714,5.53332714,90.0,90.0,90.0,cubic,Pm-3m,0.0,-3.518245508,-1.431726192,0.016845472,False,4.364165909,0.7607,True,169.4178015,22.345,12.431
mp-984051,CsGeO3,5,Cs1 Ge1 O3,4.064553,4.064553,4.064553,90.0,90.0,90.0,cubic,Pm-3m,1.0095478,-5.357084634,-1.283956636,0.598347515,False,6.269941171,0.0,False,67.14881808,96.084,-7.617
mp-27718,CsHgBr3,5,Cs1 Hg1 Br3,5.695005,5.695005,5.695005,90.0,90.0,90.0,cubic,Pm-3m,1.56e-05,-2.532679176,-1.308831023,0.04152278,False,5.153218961,0.0,False,184.7065639,22.568,8.363
mp-570591,CsHgCl3,5,Cs1 Hg1 Cl3,5.402792,5.402792,5.402792,90.0,90.0,90.0,cubic,Pm-3m,1.4e-06,-2.872839774,-1.522037546,0.032840399,False,4.631304596,0.0,False,157.7083705,27.743,10.092
mp-561947,CsHgF3,5,Cs1 Hg1 F3,4.59544972,4.59544972,4.59544972,90.0,90.0,90.0,cubic,Pm-3m,0.0,-3.638687946,-2.250120334,0.0,True,6.681526474,0.7228,False,97.04743386,49.422,16.764
mp-984357,CsKO3,5,Cs1 K1 O3,4.493182,4.493182,4.493182,90.0,90.0,90.0,cubic,Pm-3m,0.0002015,-3.78797655,-0.413180178,0.689797919,False,4.027296459,0.0,False,90.71143373,38.067,33.016
mp-8401,CsMgF3,5,Cs1 Mg1 F3,4.252307,4.252307,4.252307,90.0,90.0,90.0,cubic,Pm-3m,1.74e-05,-11.15894824,-3.431053886,0.057630619,False,4.626006179,6.7028,True,76.89070343,62.499,36.041
mp-561851,CsNO3,45,Cs1 N1 O3,10.84690041,10.84480427,7.680832796,89.99256164,89.99247834,119.9923396,trig,P3_1,0.0,-6.232582091,-1.416404115,0.0,True,3.722431332,3.2965,False,782.5278762,-35006405.951,-1921637512.779
mp-22950,CsNiCl3,10,Cs1 Ni1 Cl3,7.20877398,7.208780297,5.94015344,90.00000375,90.00001846,120.0000326,hex_,P6_3/mmc,3.9999997,-12.64128161,-1.533633926,0.0,True,3.701541106,0.8049,False,267.3322484,38.032,90685293541.718
mp-1014168,CsPbBr3,10,Cs1 Pb1 Br3,8.19814187,8.19814187,8.373861777,119.308238,119.308238,90.0,tet,I4/mcm,0.0,-3.533178795,-1.628735636,0.007483645,False,4.741253583,1.8178,True,406.1413352,17.687,7.34
mp-567681,CsPbBr3,20,Cs1 Pb1 Br3,4.60907397,9.84551805,16.95083421,90.0,90.0,90.0,ortho,Pnma,0.0,-3.540662441,-1.636219281,0.0,True,5.006763123,2.8808,False,769.2071757,11.602,5.511
mp-600089,CsPbBr3,5,Cs1 Pb1 Br3,5.94863632,5.94862291,5.94863323,89.99992044,90.00002976,90.00013908,cubic,Pm-3m,0.0,-3.515589419,-1.611146259,0.025073022,False,4.573928063,1.7819,True,210.4994913,18.482,7.962
mp-540839,CsPbI3,20,Cs1 Pb1 I3,4.84714164,10.65044663,18.03119927,90.0,90.0,90.0,ortho,Pnma,0.0,-3.101759242,-1.265076435,0.0,True,5.143480377,2.5181,False,930.8466583,9.811,4.607
mp-998307,CsPdBr3,5,Cs1 Pd1 Br3,5.278741728,5.279763407,5.280560992,90.01324861,90.01654079,89.9962693,cubic,Pm-3m,6e-07,-3.435474112,-1.237584005,0.001813842,False,5.404974606,0.0,False,147.1719039,33.583,17.108
mp-27381,CsSnI3,20,Cs1 Sn1 I3,4.78277107,10.59766711,17.96459847,90.0,90.0,90.0,ortho,Pnma,0.0,-3.076204436,-1.180136671,0.003249339,False,4.612588503,2.0632,False,910.5575124,9.875,4.784
mp-614013,CsSnI3,5,Cs1 Sn1 I3,6.286228,6.286228,6.286228,90.0,90.0,90.0,cubic,Pm-3m,0.0044224,-3.079453774,-1.18338601,0.0,True,4.226897499,0.45,True,248.4107501,15.373,7.428
mp-616378,CsSnI3,10,Cs1 Sn1 I3,6.36120441,8.66038717,8.66038717,90.0,90.0,90.0,tet,P4/mbm,0.0,-3.06760978,-1.171542016,0.011843994,False,4.40157525,0.5537,True,477.1049993,15.227,6.978
mp-8397,CsSrF3,5,Cs1 Sr1 F3,4.76324701,4.76324701,4.76324701,90.0,90.0,90.0,cubic,Pm-3m,0.0,-13.56568844,-3.642522589,0.019347564,False,4.264175877,6.1846,False,108.071035,39.37,20.108
mp-22962,CsTiBr3,10,Cs1 Ti1 Br3,7.6265278,7.626528711,6.53842333,90.00003531,90.00001716,119.9999323,hex_,P6_3/mmc,4.0000001,-4.453842156,-1.712830008,0.0,True,4.240053185,0.0,False,329.3500476,-10150034103.507,311781270.787
mp-567698,CsTiI3,10,Cs1 Ti1 I3,8.269419712,8.269491414,6.998565396,89.99713547,90.00471957,120.0791521,hex_,P6_3/mmc,4.0,-3.938046944,-1.264795148,0.009522494,False,4.50268296,0.0,False,414.1393996,-129574.182,-11016.218
mp-865424,CsUO3,5,Cs1 U1 O3,4.415419,4.415419,4.415419,90.0,90.0,90.0,cubic,Pm-3m,0.9998264,-8.625488812,-3.218684383,0.021469604,False,8.081229652,0.4571,False,86.08267743,129.135,70.632
mp-998414,CuAgF3,5,Cu1 Ag1 F3,4.008428,4.008428,4.008428,90.0,90.0,90.0,cubic,Pm-3m,0.7982092,-9.821512771,-1.506785417,0.034928862,False,5.888990141,0.0,False,64.40539697,86.522,21.339
mp-776320,CuAsO3,10,Cu1 As1 O3,5.787770911,5.787770911,5.787771351,51.32919719,51.32919719,51.32920558,trig,R-3,0.0001056,-5.981437807,-1.258795363,0.094881303,False,5.676387281,0.0,False,109.095356,-2407697047271.552,6374427935095.588
mp-22414,CuSeO3,20,Cu1 Se1 O3,5.476776,6.151551,7.306758,90.0,90.0,90.0,ortho,Pnma,4.0057562,-5.554540329,-1.066740096,0.028767922,False,5.140191657,0.0,False,246.1695497,27.12,28.384
mp-16053,CuSiO3,10,Cu1 Si1 O3,2.860253,4.918236,8.958139,90.0,90.0,90.0,ortho,Pmma,2.0111634,-7.123297562,-2.249616019,0.091200764,False,3.679809082,0.112,False,126.0177181,31.454,19.986
mp-756630,DyAlO3,20,Dy1 Al1 O3,5.16840341,5.31063225,7.37199326,90.0,90.0,90.0,ortho,Pnma,0.0,-8.38752288,-3.745956005,0.012823483,False,7.795573824,5.723,True,202.34271,191.925,113.32
mp-10060,DyBPd3,5,Dy1 B1 Pd3,4.319571,4.319571,4.319571,90.0,90.0,90.0,cubic,Pm-3m,0.0041807,-22.30203584,-0.660132186,0.11293425,False,10.14836517,0.0,False,80.59755188,143.573,17.014
mp-3183,DyBRh3,5,Dy1 B1 Rh3,4.17299336,4.17299336,4.17299336,90.0,90.0,90.0,cubic,Pm-3m,0.6675759,-7.471840072,-0.79370189,0.0,True,11.01483085,0.0,False,72.66797883,183.388,86.089
mp-31120,DyScO3,20,Dy1 Sc1 O3,5.45367,5.747842,7.988247,90.0,90.0,90.0,ortho,Pnma,0.0014181,-9.120001231,-3.961055701,0.025833509,False,6.776053477,4.4598,True,250.4062485,164.678,82.262
mp-10038,Er3AlC,5,Er3 Al1 C1,5.303405,5.303405,5.303405,90.0,90.0,90.0,cubic,Pm-3m,6.6e-06,-3.890210928,1.445268623,1.87665023,False,6.020002828,0.0,False,149.1641237,38.49,16.408
mp-10274,Er3GaC,5,Er3 Ga1 C1,5.253141,5.253141,5.253141,90.0,90.0,90.0,cubic,Pm-3m,0.0013796,-4.005390444,1.186593145,1.629007376,False,6.684066284,0.0,False,144.9630019,46.623,21.304
mp-10275,Er3InC,5,Er3 In1 C1,5.533707,5.533707,5.533707,90.0,90.0,90.0,cubic,Pm-3m,0.0021078,-3.528453038,1.609746095,1.96854864,False,6.159974741,0.0,False,169.4526952,40.114,12.572
mp-10061,ErBPd3,5,Er1 B1 Pd3,4.304722,4.304722,4.304722,90.0,90.0,90.0,cubic,Pm-3m,0.0008943,-22.69787405,-0.667244015,0.114762246,False,10.35281433,0.0,False,79.76921708,146.762,20.647
mp-21455,EuAlO3,20,Eu1 Al1 O3,5.318991,5.33985,7.555933,90.0,90.0,90.0,ortho,Pnma,23.9990034,-9.099893921,-3.324379769,0.111482014,False,7.023941446,0.0,False,214.6082491,177.251,105.877
mp-983564,EuAsO3,5,Eu1 As1 O3,3.998452,3.998452,3.998452,90.0,90.0,90.0,cubic,Pm-3m,6.6835438,-8.219218426,-2.258794934,0.27696565,False,7.140400683,0.0,False,63.92572475,164.961,78.314
mp-865181,EuGeO3,5,Eu1 Ge1 O3,3.83991258,3.836787962,3.841179293,90.00353639,90.00233111,90.01420426,cubic,Pm-3m,6.807207,-8.551858304,-2.600853747,0.09222758,False,7.998798444,0.0,False,56.59182513,167.47,101.809
mp-644246,EuH3Pd,5,Eu1 H3 Pd1,3.78882214,3.79214528,3.79250035,90.0,90.0,90.0,cubic,Pm-3m,6.9417748,-14.96014824,-0.590813538,0.0,True,7.966230302,0.0,False,54.48974998,86.912,38.11
mp-753781,EuHfO3,5,Eu1 Hf1 O3,4.09768332,4.09766316,4.09771369,89.99898543,89.99935178,90.00050728,cubic,Pm-3m,6.9999999,-10.73750292,-3.719666126,0.0,True,9.133639661,0.4796,True,68.80440725,165.391,95.032
mp-771055,EuZrO3,5,Eu1 Zr1 O3,4.197333,4.197333,4.197333,90.0,90.0,90.0,cubic,Pm-3m,7.0004074,-10.28281081,-3.5468717,0.093319187,False,6.538823412,0.3877,True,73.94695196,154.842,83.545
mp-567703,Fe3NiN,5,Fe3 Ni1 N1,3.774044,3.774044,3.774044,90.0,90.0,90.0,cubic,Pm-3m,8.0131899,-8.032090492,-0.126394881,0.02635518,False,7.421038441,0.0,False,53.75524893,203.967,86.951
mp-579496,Fe3PtN,5,Fe3 Pt1 N1,3.84908392,3.84911315,3.84906827,90.0,90.0,90.0,cubic,Pm-3m,8.7936485,-8.215224814,-0.251329875,0.0,True,10.96693772,0.0,False,57.0261001,206.727,98.815
mp-580234,Fe3RhN,5,Fe3 Rh1 N1,3.83973055,3.83963097,3.83894589,90.0,90.0,90.0,cubic,Pm-3m,9.5591468,-8.368635934,-0.146106085,0.0,True,8.345426463,0.0,False,56.59814871,180.818,82.097
mp-2931287,FePS3,20,Fe1 P1 S3,5.874893187,10.33324698,7.677210003,89.94263304,105.9053738,89.999651,mono,P2_1/m,0.0,-5.816602746,-0.556488058,0.126051321,False,2.712103147,0.5064,False,448.215256,-109.892,-15.716
mp-2928,FePSe3,10,Fe1 P1 Se3,7.276442602,7.276442602,7.276442369,50.13797486,50.13797486,50.13798027,trig,R-3,0.0003489,-5.289859963,-0.415214129,0.111388733,False,5.144585785,0.0015,False,208.9631557,-687980.398,10723552664729.102
mp-1017563,GaPt3C,5,Ga1 Pt3 C1,4.206392,4.206392,4.206392,90.0,90.0,90.0,cubic,Pm-3m,0.0014611,-5.745444486,0.348587809,0.703917763,False,14.88114649,0.0,False,74.42677971,192.195,-67.22
mp-5223,GdAlO3,20,Gd1 Al1 O3,5.24264768,5.30533641,7.44562991,89.99999293,90.00005176,89.99998479,ortho,Pnma,27.9999996,-10.22356627,-3.69045005,0.008384389,False,7.448380871,3.2382,False,207.092822,184.501,108.981
mp-5690,GdScO3,20,Gd1 Sc1 O3,5.49028423,5.75677968,7.96255827,90.0,90.0,90.0,ortho,Pnma,27.9999996,-10.97082252,-3.920327644,0.011744572,False,6.603534804,3.1418,True,251.6674569,162.616,80.921
mp-973738,GeBO3,5,Ge1 B1 O3,3.407341,3.407341,3.407341,90.0,90.0,90.0,cubic,Pm-3m,0.0001038,-6.239931454,-1.010670926,1.358852278,False,5.517727488,0.0,False,39.55913596,202.009,-146.863
mp-28369,GeH3Cl,10,Ge1 H3 Cl1,4.586317384,4.586318865,8.35736286,90.0,90.0,104.8259431,ortho,Cmc2_1,0.0,-3.735963525,-0.404550759,0.0,True,2.171531545,4.7492,False,169.9388812,1.242999999999999,0.967
mp-1017566,GePbO3,5,Ge1 Pb1 O3,3.888437,3.888437,3.888437,90.0,90.0,90.0,cubic,Pm-3m,0.0001146,-6.347383798,-1.71147221,0.217755943,False,9.25941295,0.0,False,58.79294309,157.328,96.824
mp-541785,GePdS3,10,Ge1 Pd1 S3,3.47151536,7.581681148,9.321243387,106.7401816,90.0,103.2347361,mono,C2/m,0.0,-5.094248789,-0.650651115,0.0,True,4.007212269,1.3441,False,228.1245166,8.161,5.086
mp-1078233,H3CCl,10,H3 C1 Cl1,4.137763842,4.137763842,7.651655,90.0,90.0,103.5408506,ortho,Cmc2_1,0.0,-4.625037816,-0.372497522,0.079513755,False,1.316495231,5.5721,False,127.3631645,3.07,18.317
mp-23963,HIO3,20,H1 I1 O3,5.716437,5.890396,8.00416,90.0,90.0,90.0,ortho,P2_12_12_1,0.0,-4.849783467,-0.897171053,0.01635329,False,4.335262986,3.1022,False,269.516697,13.126,11.542
mp-1014252,Hf3ZnN,10,Hf3 Zn1 N1,5.840821849,5.840821849,8.74354286,90.0,90.0,147.1263711,ortho,Cmcm,0.0,-31.7165886,-1.017868711,0.0,True,12.61269599,0.0,False,161.9069748,149.253,92.143
mp-1017578,HfBRh3,5,Hf1 B1 Rh3,4.09526278,4.09526278,4.09526278,90.0,90.0,90.0,cubic,Pm-3m,1e-07,-25.80575055,-0.824459452,0.0,True,12.04060692,0.0,False,68.68237792,223.425,101.826
mp-1017446,HfCdO3,5,Hf1 Cd1 O3,4.098109,4.098109,4.098109,90.0,90.0,90.0,cubic,Pm-3m,0.0032801,-7.822235606,-2.670019159,0.280328005,False,8.1765317,0.0,False,68.82568085,167.615,69.422
mp-1016841,HfHgO3,5,Hf1 Hg1 O3,4.122739,4.122739,4.122739,90.0,90.0,90.0,cubic,Pm-3m,0.0166903,-7.389007276,-2.36685846,0.299051158,False,10.12043026,0.0,False,70.07409939,159.867,52.316
mp-1016825,HfMgO3,5,Hf1 Mg1 O3,4.072456,4.072456,4.072456,90.0,90.0,90.0,cubic,Pm-3m,0.00199,-8.324014238,-3.037705826,0.589504466,False,6.165888288,1.1738,False,67.54126685,168.944,77.756
mp-776083,HfSnO3,10,Hf1 Sn1 O3,7.456477905,7.456477905,7.456477921,42.87209825,42.87209825,42.87209609,trig,R-3,0.0011155,-8.757209739,-2.995080959,0.068686627,False,6.592594464,2.3676,False,173.8966654,15287.792,-17270523248.188
mp-1016819,HfZnO3,5,Hf1 Zn1 O3,4.076656,4.076656,4.076656,90.0,90.0,90.0,cubic,Pm-3m,0.0123883,-7.653380586,-2.441217455,0.687028815,False,7.154294749,0.0,False,67.75045215,162.57,55.645
mp-1017447,HgGeO3,5,Hg1 Ge1 O3,3.82031,3.82031,3.82031,90.0,90.0,90.0,cubic,Pm-3m,0.000284,-5.12807882,-1.172762239,0.375254153,False,9.566805528,0.0,False,55.75654003,172.111,64.611
mp-1016831,HgIrO3,5,Hg1 Ir1 O3,3.966927,3.966927,3.966927,90.0,90.0,90.0,cubic,Pm-3m,0.1733409,-5.407044466,-0.60864662,0.401912078,False,11.72554886,0.0,False,62.4255857,175.489,40.37
mp-1016840,HgOsO3,5,Hg1 Os1 O3,3.954635,3.954635,3.954635,90.0,90.0,90.0,cubic,Pm-3m,0.0022294,-6.127337816,-0.85115332,0.316064325,False,11.78187775,0.0,False,61.84708244,202.882,47.226
mp-1016877,HgRhO3,5,Hg1 Rh1 O3,3.970706,3.970706,3.970706,90.0,90.0,90.0,cubic,Pm-3m,1.3911544,-5.079618962,-0.576046378,0.409349453,False,9.323166634,0.0,False,62.60416052,148.652,39.585
mp-1016851,HgRuO3,5,Hg1 Ru1 O3,3.944331,3.944331,3.944331,90.0,90.0,90.0,cubic,Pm-3m,0.0051393,-5.712738898,-0.82714738,0.301472753,False,9.46177805,0.0,False,61.36490393,178.37,39.007
mp-10279,Ho3GaC,5,Ho3 Ga1 C1,5.274446,5.274446,5.274446,90.0,90.0,90.0,cubic,Pm-3m,7.2e-06,-4.01324139,1.196718592,1.618684529,False,6.52433774,0.0,False,146.7339305,45.194,20.445
mp-10356,Ho3InC,5,Ho3 In1 C1,5.559885,5.559885,5.559885,90.0,90.0,90.0,cubic,Pm-3m,7.15e-05,-3.54337875,1.612796776,1.956069486,False,6.005876709,0.0,False,171.868951,39.666,12.289
mp-7114,Ho3SnC,5,Ho3 Sn1 C1,5.57875,5.57875,5.57875,90.0,90.0,90.0,cubic,Pm-3m,0.0027818,-3.925218212,1.481036937,2.000656815,False,5.982377406,0.0,False,173.6243767,41.472,9.405
mp-3693,HoBPd3,5,Ho1 B1 Pd3,4.312194,4.312194,4.312194,90.0,90.0,90.0,cubic,Pm-3m,8e-07,-22.48554046,-0.663728673,0.112943182,False,10.25086659,0.0,False,80.18532114,145.69,18.834
mp-3710,HoBRh3,5,Ho1 B1 Rh3,4.16588183,4.16588183,4.16588183,90.0,90.0,90.0,cubic,Pm-3m,0.6651276,-7.476134166,-0.802135197,0.0,True,11.12715732,0.0,False,72.29709375,184.167,87.48
mp-982558,HoGeO3,5,Ho1 Ge1 O3,3.904923,3.904923,3.904923,90.0,90.0,90.0,cubic,Pm-3m,0.0006553,-7.165676248,-2.352758181,0.698465031,False,7.963830435,0.0,False,59.54392017,142.29,64.149
mp-973977,HoSnO3,5,Ho1 Sn1 O3,4.351836,4.351836,4.351836,90.0,90.0,90.0,cubic,Pm-3m,0.9619467,-6.82203584,-2.131808973,0.869262274,False,6.681846651,0.0,False,82.41714413,90.383,34.59
mp-975443,InCuO3,5,In1 Cu1 O3,3.787341,3.787341,3.787341,90.0,90.0,90.0,cubic,Pm-3m,0.0027112,-5.246440988,-0.905988302,0.516984141,False,6.919102679,0.0,False,54.32543694,160.872,55.989
mp-9200,K3AuO,5,K3 Au1 O1,5.22438571,5.22438571,5.22438571,90.0,90.0,90.0,cubic,Pm-3m,0.0,-3.202910128,-0.879719693,0.0,True,3.845922409,0.5612,False,142.59546,18.66,11.654
mp-28166,K3BrO,5,K3 Br1 O1,5.19026401,5.19026401,5.19026401,90.0,90.0,90.0,cubic,Pm-3m,0.0,-3.560015648,-1.564212306,0.0,True,2.532004578,0.8913,True,139.8196943,19.399,12.792
mp-28171,K3IO,5,K3 I1 O1,5.29423015,5.29423015,5.29423015,90.0,90.0,90.0,cubic,Pm-3m,0.0,-3.419062858,-1.4458463,0.0,True,2.911695035,1.0284,True,148.3913039,18.587,12.762
mp-973396,KBeO3,5,K1 Be1 O3,3.771574,3.771574,3.771574,90.0,90.0,90.0,cubic,Pm-3m,2.9999698,-5.136239456,-1.193306335,0.635952091,False,2.974704425,0.0,False,53.64977434,92.168,27.945
mp-982040,KBiO3,5,K1 Bi1 O3,4.284204,4.284204,4.284204,90.0,90.0,90.0,cubic,Pm-3m,0.0005425,-5.452773802,-1.479716392,0.092868684,False,6.252348761,0.0,False,78.63401066,86.685,65.445
mp-4950,KCaF3,5,K1 Ca1 F3,4.481726,4.481726,4.481726,90.0,90.0,90.0,cubic,Pm-3m,0.0,-5.471143296,-3.696861995,0.023864284,False,2.511883222,6.1392,False,90.01935658,48.658,25.296
mp-982885,KCaO3,5,K1 Ca1 O3,4.568674,4.568674,4.568674,90.0,90.0,90.0,cubic,Pm-3m,3.0,-5.06711209,-1.470941566,0.439582296,False,2.214515002,0.0,False,95.36093697,40.526,3.548
mp-10175,KCdF3,5,K1 Cd1 F3,4.38208902,4.38208902,4.38208902,90.0,90.0,90.0,cubic,Pm-3m,4e-07,-4.24200609,-2.676842727,0.025577015,False,4.11453691,3.1006,False,84.14795914,55.986,21.121
mp-23022,KClO3,10,K1 Cl1 O3,5.701289,4.751184,7.236104033,70.72898769,90.0,90.0,mono,P2_1/m,0.0003373,-4.713488817,-1.148730937,0.050930347,False,2.199650261,5.4717,False,185.0278073,15.769,7.956
mp-556084,KClO3,20,K1 Cl1 O3,4.736659,5.719557,13.665051,90.0,90.0,90.0,ortho,Pnma,0.0018361,-4.713512315,-1.148754435,0.050906849,False,2.19874499,5.5725,False,370.2079746,15.73,8.247
mp-1023129,KCuCl3,5,K1 Cu1 Cl3,4.79805545,4.79804927,4.79805133,90.0,90.0,90.0,cubic,Pm-3m,0.5088569,-8.324836616,-1.26036129,0.030757297,False,3.142008713,0.0,False,110.45741,38.496,17.3
mp-5566,KCuF3,10,K1 Cu1 F3,5.650595204,5.647021428,5.647021828,90.13977443,119.8984754,119.8984763,cubic,Pm-3m,0.0093765,-4.548677252,-2.355674593,0.002198548,False,4.153368004,0.0,False,127.6494845,68.887,30.35
mp-669347,KCuF3,10,K1 Cu1 F3,5.680055154,5.680679711,5.68068068,92.48404255,118.5797755,118.5797774,tet,I4/mcm,0.000266,-4.5508758,-2.357873141,0.0,True,4.008852462,0.0,False,132.2511341,78.848,33.832
mp-973830,KErO3,5,K1 Er1 O3,4.426509,4.426509,4.426509,90.0,90.0,90.0,cubic,Pm-3m,2.0061636,-6.434016168,-2.325421858,0.255832053,False,4.869744499,0.0,False,86.73293735,65.414,3.327
mp-7483,KHgF3,20,K1 Hg1 F3,6.40393385,6.41619267,9.04877947,90.0,90.0,90.0,cubic,Pm-3m,0.0,-3.63507531,-2.199979577,0.0,True,5.300151194,0.6082,False,371.8041543,50.671,12.972
mp-23487,KIO3,20,K1 I1 O3,7.67246903,7.690671943,7.680980049,109.5181294,109.0969225,109.3830158,tri,P1,0.0,-4.866476068,-1.366622997,0.0,True,4.053475827,2.7868,True,350.6688937,21.031,14.11
mp-27865,KMgCl3,20,K1 Mg1 Cl3,6.9558722,6.99846994,9.91599163,90.0,90.0,90.0,ortho,Pnma,0.0,-3.911991746,-2.250501802,0.002808604,False,2.335928214,4.4851,True,482.7150587,31.053,15.706
mp-3448,KMgF3,5,K1 Mg1 F3,3.97846823,3.97846823,3.97846823,90.0,90.0,90.0,cubic,Pm-3m,0.0,-5.236904424,-3.537649096,0.0,True,3.174844985,6.9537,False,62.97202846,74.789,43.567
mp-1017580,KMgH3,5,K1 Mg1 H3,4.435872,4.435872,4.435872,90.0,90.0,90.0,cubic,Pm-3m,2e-05,-1.886475082,0.702992729,1.048648856,False,1.263739336,0.0,False,87.28447769,20.908,-18.751
mp-5158,KNO3,20,K1 N1 O3,5.4109266,6.18542073,9.15028024,90.0,90.0,90.0,ortho,Pnma,0.0,-6.284844694,-1.422138597,0.0,True,2.192798407,2.9384,False,306.249426,17.312,8.418
mp-5246,KNbO3,5,K1 Nb1 O3,4.00636436,4.071075482,4.071076844,90.20366844,90.0,90.0,ortho,Amm2,0.0,-8.067085836,-2.85177428,0.0003534,False,4.501553298,2.0585,False,66.39970574,103.853,50.363
mp-935811,KNbO3,5,K1 Nb1 O3,4.02918278,4.02918278,4.02918278,90.0,90.0,90.0,cubic,Pm-3m,0.0,-8.059709008,-2.844397452,0.007730228,False,4.569594296,1.4121,False,65.41101791,172.61,109.553
mp-8267,KPS3,10,K1 P1 S3,6.907587079,7.096471062,7.096471552,72.07381071,60.87663973,60.87663977,ortho,Immm,0.0,-4.749104456,-0.956720066,0.0,True,2.089096369,1.7149,False,264.3180622,10.254,4.41
mp-9061,KPdF3,5,K1 Pd1 F3,4.309256,4.309256,4.309256,90.0,90.0,90.0,cubic,Pm-3m,0.0026034,-4.51968138,-2.110543693,0.034555294,False,4.202388629,0.0,False,80.0215363,68.848,19.737
mp-974842,KPtO3,5,K1 Pt1 O3,4.046411,4.046411,4.046411,90.0,90.0,90.0,cubic,Pm-3m,1.7118185,-5.359969388,-0.950692176,0.12546218,False,7.072388646,0.0,False,66.25367574,119.312,51.104
mp-973471,KReO3,5,K1 Re1 O3,3.939058,3.939058,3.939058,90.0,90.0,90.0,cubic,Pm-3m,0.0003283,-7.76651601,-2.081842621,0.037437421,False,7.425354017,0.0,False,61.11912479,201.94,119.458
mp-16293,KSbO3,20,K1 Sb1 O3,7.515630088,7.515630088,7.515630088,60.0,60.0,60.0,cubic,Fd-3m,0.0024101,-6.025254999,-2.004404203,0.04472297,False,4.621424829,1.1213,False,300.1796116,112.518,73.035