formula,sites,composition,a_edge (angstrom),b_edge (angstrom),c_edge (angstrom),alpha_ang (deg),beta_ang (deg),gamma_ang (deg),crystal_system,space_group,total_magnetisation (bohr),energy_per_atom (eV/atom),formation_energy (eV/atom),energy_above_hull (eV/atom),density (g/cc),band_gap (eV),direct_bandgap,volume (cubic-angstrom)
Dy3SnC,5,Dy3 Sn1 C1,4.87069979,4.87069979,4.87069979,90.0,90.0,90.0,cubic,Pm-3m,3e-06,-6.039251322,-0.620578535,0.0,8.884204632,0.0,False,115.5511007
DyB3Mo,10,Dy1 B3 Mo1,3.15925114,5.430907745,6.840336519,77.83532261,90.0,90.0,mono,P2_1/m,0.0,-16.68311189,-0.664542838,0.0,8.419983894,0.0,False,114.7284807
DyBO3,20,Dy1 B1 O3,6.106156805,6.356277026,6.352441828,92.32161557,108.4751828,107.811875,tri,P-1,0.0,-8.75233847,-3.524008407,0.0,6.680369873,5.3594,True,220.0432487
DyBRh3,5,Dy1 B1 Rh3,4.17299336,4.17299336,4.17299336,90.0,90.0,90.0,cubic,Pm-3m,0.6675759,-7.471840072,-0.79370189,0.0,11.01483085,0.0,False,72.66797883
DyCrO3,20,Dy1 Cr1 O3,5.23463434,5.53590021,7.54140459,90.0,90.0,90.0,ortho,Pnma,12.0000008,-9.043801588,-3.220740385,0.0,7.97814862,2.4922,False,218.5379394
DyGa3Cu,5,Dy1 Ga3 Cu1,6.041687863,6.041687863,6.041687863,140.9396304,140.9396304,56.42934405,tet,I-4m2,0.0,-15.96344555,-0.532060131,0.0,8.318990922,0.0,False,86.87249652
DyGa3Ru,15,Dy1 Ga3 Ru1,6.37718383,6.37718383,6.37718383,90.0,90.0,90.0,cubic,Pm-3m,6e-07,-5.180565354,-0.585152127,0.0,9.080399909,0.0,False,259.3503322
DyMnO3,30,Dy1 Mn1 O3,6.136044374,6.136044411,11.42852703,89.99999992,90.0000001,119.9995203,hex_,P6_3cm,24.0000003,-8.782302026,-3.057447259,0.0,7.09676781,0.0,False,372.649014
DyNiGe3,10,Dy1 Ni1 Ge3,10.9250475,10.9250475,4.07458642,90.0,90.0,158.5920398,ortho,Cmmm,0.0,-5.425866614,-0.572347459,0.0,8.215337684,0.0,False,177.5130818
DyNiO3,20,Dy1 Ni1 O3,5.153995031,5.49893767,7.390526828,89.99977502,89.99809542,90.00004845,ortho,Pnma,3.9999993,-7.549553844,-2.501074799,0.0,8.536353718,0.0,False,209.4585969
DyRh3C,5,Dy1 Rh3 C1,4.14780277,4.14780277,4.14780277,90.0,90.0,90.0,cubic,Pm-3m,4e-07,-7.690970076,-0.50297715,0.0,11.24465609,0.0,False,71.35990971
DyRhO3,20,Dy1 Rh1 O3,5.21847713,5.75597356,7.573281,90.0,90.0,90.0,ortho,Pnma,0.0,-7.946916541,-2.581603258,0.0,9.150958,0.8883,True,227.4817948
DyRu3C,5,Dy1 Ru3 C1,4.13466309,4.13466309,4.13466309,90.0,90.0,90.0,cubic,Pm-3m,3.2e-06,-8.54678541,-0.212735682,0.0,11.22284012,0.0,False,70.68388009
DyScS3,20,Dy1 Sc1 S3,6.37621861,7.00288526,9.52664085,90.0,90.0,90.0,ortho,Pnma,0.0,-15.772779,-2.275721434,0.0,4.741368135,1.7737,False,425.3828748
DySeO3,40,Dy1 Se1 O3,12.22147792,5.931740473,8.88506698,73.80175795,89.99950874,89.9991949,mono,P2_1/c,0.0,-7.116776911,-2.525142906,0.0,6.21656419,1.8154,False,618.5495841
DySi3Ir,5,Dy1 Si3 Ir1,5.708651666,5.708651666,5.708651666,137.1650738,137.1650738,62.18416398,tet,I4mm,0.0,-6.728773654,-0.782220894,0.0,8.578545159,0.0,False,84.97159279
DyVO3,20,Dy1 V1 O3,5.25263721,5.66556438,7.54368515,90.0,90.0,90.0,ortho,Pnma,8.0,-9.005861854,-3.296628931,0.0,7.735287972,1.6568,False,224.4936902
DyVSb3,20,Dy1 V1 Sb3,6.182767891,6.151420121,12.7536331,90.00015439,89.99970565,89.99836354,ortho,Pbcm,7.3129507,-5.841759233,-0.623902169,0.0,7.924766148,0.0,False,485.0564125
Er3AlC,5,Er3 Al1 C1,4.80526343,4.80526343,4.80526343,90.0,90.0,90.0,cubic,Pm-3m,1.1e-06,-5.766861158,-0.431381607,0.0,8.092998743,0.0,False,110.9562074
Er3AlN,5,Er3 Al1 N1,4.68650677,4.68650677,4.68650677,90.0,90.0,90.0,cubic,Pm-3m,6.1e-06,-24.63189949,-1.104468588,0.0,8.756153709,0.0,False,102.9313683
Er3InN,5,Er3 In1 N1,4.73048637,4.73048637,4.73048637,90.0,90.0,90.0,cubic,Pm-3m,2.89e-05,-27.90605794,-1.209328626,0.0,9.892062422,0.0,False,105.8564649
ErB3Mo,10,Er1 B3 Mo1,3.14853331,5.396441535,6.795746495,101.795798,90.0,90.0,mono,P2_1/m,1e-07,-7.730199435,-0.639890588,0.0,8.686545192,0.0,False,113.0273255
ErBO3,30,Er1 B1 O3,6.471126237,6.471126237,9.485993881,70.42592957,70.42592957,60.08046882,mono,C2/c,0.0,-8.785447342,-3.567248623,0.0,7.094939422,5.6534,False,317.4615501
ErBRh3,5,Er1 B1 Rh3,4.15895118,4.15895118,4.15895118,90.0,90.0,90.0,cubic,Pm-3m,0.6594741,-7.482302914,-0.814296076,0.0,11.23663194,0.0,False,71.93685835
ErCoO3,20,Er1 Co1 O3,5.08216856,5.42485142,7.3068925,90.0,90.0,90.0,ortho,Pnma,0.0,-7.962130946,-2.653127237,0.0,9.040484271,1.4471,False,201.4510944
ErCrO3,20,Er1 Cr1 O3,5.18848926,5.52090784,7.50302878,90.0,90.0,90.0,ortho,Pnma,12.0000001,-9.049514932,-3.236585073,0.0,8.259316967,0.2571,False,214.9255427
ErGa3Os,15,Er1 Ga3 Os1,6.35239464,6.35239464,6.35239464,90.0,90.0,90.0,cubic,Pm-3m,0.1299785,-5.46129247,-0.485417608,0.0,11.0123236,0.0,False,256.3376579
ErGa3Ru,15,Er1 Ga3 Ru1,6.34642962,6.34642962,6.34642962,90.0,90.0,90.0,cubic,Pm-3m,0.0,-5.169319739,-0.584037855,0.0,9.305795499,0.0,False,255.6162179
ErMnO3,30,Er1 Mn1 O3,6.079453238,6.079430599,11.38085613,90.00000082,89.99999731,119.9996731,hex_,P6_3cm,23.999999,-8.79721865,-3.082495226,0.0,7.389986188,0.0,False,364.279241
ErNiO3,20,Er1 Ni1 O3,5.10714498,5.49542731,7.3320099,90.0,90.0,90.0,ortho,Pnma,4.0000005,-7.555905561,-2.51755786,0.0,8.842572876,0.0,False,205.7797793
ErRh3C,5,Er1 Rh3 C1,4.13379555,4.13379555,4.13379555,90.0,90.0,90.0,cubic,Pm-3m,1e-07,-7.705516856,-0.527655274,0.0,11.47122129,0.0,False,70.6393965
ErRhO3,20,Er1 Rh1 O3,5.18710261,5.72004523,7.53016477,90.0,90.0,90.0,ortho,Pnma,0.0,-7.951800669,-2.59661873,0.0,9.458659049,0.9642,True,223.4234642
ErRu3C,5,Er1 Ru3 C1,4.12095413,4.12095413,4.12095413,90.0,90.0,90.0,cubic,Pm-3m,1.07e-05,-8.569525722,-0.245607338,0.0,11.44813657,0.0,False,69.98312661
ErVO3,20,Er1 V1 O3,5.20978186,5.64494742,7.49784195,90.0,90.0,90.0,ortho,Pnma,8.0,-9.009617457,-3.310515878,0.0,8.018613803,1.5838,False,220.503619
Eu3InO,5,Eu3 In1 O1,5.05264029,5.05256428,5.05271312,90.0,90.0,90.0,cubic,Pm-3m,21.3701509,-9.167340546,-1.453046447,0.0,7.552961566,0.0,False,128.9896514
EuCO3,20,Eu1 C1 O3,5.10965115,5.94351265,8.41489239,90.0,89.99997449,90.0,ortho,Pnma,28.0000011,-9.494560945,-2.622428861,0.0,5.509426855,0.4293,False,255.5541916
EuCoGe3,5,Eu1 Co1 Ge3,4.288636251,4.288636478,5.787390126,111.7474173,111.7474131,89.9999951,tet,I4mm,6.7529439,-19.12541619,-0.451206875,0.0,7.854171519,0.0,False,90.66108411
EuGa3Ag,5,Eu1 Ga3 Ag1,6.245589545,6.245589545,6.245589545,139.5323532,139.5323532,58.56404667,tet,I-4m2,6.946192,-19.30995557,-0.46893803,0.0,7.660098195,0.0,False,101.6690381
EuGa3Cu,5,Eu1 Ga3 Cu1,6.089450218,6.089450218,6.089450218,139.6484425,139.6484425,58.38747938,tet,I-4m2,6.949563,-5.106048172,-0.411726842,0.0,7.518369364,0.0,False,93.79641197
EuGa3Pd,10,Eu1 Ga3 Pd1,6.069418262,6.069418262,5.91717711,90.0,90.0,116.4756808,ortho,Cmcm,13.9218176,-19.8764438,-0.714510963,0.0,7.958261346,0.0,False,195.1154878
EuGe3Ir,5,Eu1 Ge3 Ir1,5.973193329,5.973193329,5.973193329,136.029868,136.029868,63.93416227,tet,I4mm,6.7956024,-7.194591296,-0.595465364,0.0,9.209099647,0.0,False,101.3552579
EuGe3Pd,5,Eu1 Ge3 Pd1,5.958681488,5.958681488,5.958681488,135.9971454,135.9971454,63.98474846,tet,I4mm,6.8883315,-6.448426666,-0.581011208,0.0,7.851666359,0.0,False,100.7329353
EuGe3Pt,5,Eu1 Ge3 Pt1,4.482715624,4.482712873,5.929244457,112.2109185,112.2109286,90.00000332,tet,I4mm,6.8489318,-6.694285784,-0.648620024,0.0,9.317079162,0.0,False,100.6915815
EuGe3Rh,5,Eu1 Ge3 Rh1,5.922378063,5.922378063,5.922378063,136.2846057,136.2846057,63.54063592,tet,I4mm,6.8133933,-21.52292114,-0.668312321,0.0,8.018124759,0.0,False,97.91384627
EuGeS3,30,Eu1 Ge1 S3,8.41611227,8.485661838,11.77012284,69.18407749,80.70013195,75.42701155,tri,P-1,42.0000004,-6.82402399,-1.358780296,0.0,4.21656938,0.0,True,758.0085476
EuH3Pd,5,Eu1 H3 Pd1,3.78882214,3.79214528,3.79250035,90.0,90.0,90.0,cubic,Pm-3m,6.9417748,-14.96014824,-0.590813538,0.0,7.966230302,0.0,False,54.48974998
EuHfO3,5,Eu1 Hf1 O3,4.09768332,4.09766316,4.09771369,89.99898543,89.99935178,90.00050728,cubic,Pm-3m,6.9999999,-10.73750292,-3.719666126,0.0,9.133639661,0.4796,True,68.80440725
EuHfS3,20,Eu1 Hf1 S3,6.60695663,7.07850207,9.64170674,90.0,90.0,90.0,ortho,Pnma,27.9999917,-23.64051265,-2.085053584,0.0,6.284678757,0.1287,True,450.9171333
EuMgGa3,5,Eu1 Mg1 Ga3,4.31164196,4.31164196,6.443302586,70.45280835,70.45280835,90.0,tet,I-4m2,7.0127319,-4.619867374,-0.419293375,0.0,6.065248181,0.0,False,105.5249246
EuNbO3,10,Eu1 Nb1 O3,5.709876911,5.706059609,5.706064032,60.57379755,59.97948554,59.9795908,ortho,Imma,13.4203772,-10.19022345,-3.143563456,0.0,7.369784191,0.0,False,131.9766511
EuNiGe3,5,Eu1 Ni1 Ge3,5.783994395,5.783994395,5.783994395,136.0205306,136.0205306,63.94859619,tet,I4mm,6.8120356,-6.509523508,-0.522057076,0.0,7.730846678,0.0,False,92.05583106
EuNpO3,20,Eu1 Np1 O3,5.94021533,6.13438638,8.55275324,90.0,90.0,90.0,ortho,Pnma,40.0,-11.03505147,-3.419096551,0.0,9.312659001,0.0,False,311.6587018
EuPS3,20,Eu1 P1 S3,7.55293914,6.64483084,11.29563194,55.65330523,90.0,90.0,mono,P2_1/c,28.0000004,-15.61367748,-1.288086224,0.0,3.961132608,0.844,False,468.0589134
EuPSe3,20,Eu1 P1 Se3,7.80256507,6.99196033,11.82313847,55.42852351,90.0,90.0,mono,P2_1/c,28.0000005,-19.1985621,-1.107034159,0.0,5.250249069,0.4933,False,531.1167416
EuSeO3,10,Eu1 Se1 O3,4.431882117,5.423626961,6.449863472,90.00037742,106.7273964,90.00187766,mono,P2_1/m,13.9999001,-7.976394935,-2.250813653,0.0,6.238942248,0.0866,False,148.4742738
EuSi3Ir,5,Eu1 Si3 Ir1,5.818493814,5.818493814,5.818493814,137.0997678,137.0997678,62.28458223,tet,I4mm,6.6934462,-7.801438646,-0.720938609,0.0,7.888610643,0.0,False,90.18536198
EuSi3Ni,5,Eu1 Si3 Ni1,5.607886525,5.607886525,5.607886525,136.7929674,136.7929674,62.75674869,tet,I4mm,6.7301044,-6.994201492,-0.525360955,0.0,5.998368144,0.0,False,81.64154658
EuSi3Rh,5,Eu1 Si3 Rh1,5.770062404,5.770062404,5.770062404,137.1989127,137.1989127,62.13214338,tet,I4mm,6.7430028,-18.52662264,-0.73094161,0.0,6.425854498,0.0,False,87.63534432
EuTiO3,10,Eu1 Ti1 O3,5.525466335,5.525404238,5.52540684,89.0832408,120.5302153,120.5301943,tet,I4/mcm,13.9952801,-10.16401936,-3.558521974,0.0,6.956660393,0.0,False,118.3125365
EuZrO3,20,Eu1 Zr1 O3,5.74546581,5.84474033,8.1659234,90.0000538,90.0001131,90.00000107,ortho,Pnma,0.0,-10.37613,-3.640190887,0.0,7.05316608,0.1866,True,274.217879
EuZrS3,20,Eu1 Zr1 S3,6.5652183,7.15394128,9.6658817,90.0,90.0,90.0,ortho,Pnma,4.2647362,-8.33156139,-2.081383141,0.0,4.965501931,0.1453,True,453.9792657
Fe3PdN,5,Fe3 Pd1 N1,3.85021387,3.85019387,3.85026736,90.0,90.0,90.0,cubic,Pm-3m,8.8165258,-7.983002004,-0.197357367,0.0,8.37771315,0.0,False,57.07663225
Fe3PtN,5,Fe3 Pt1 N1,3.84908392,3.84911315,3.84906827,90.0,90.0,90.0,cubic,Pm-3m,8.7936485,-8.215224814,-0.251329875,0.0,10.96693772,0.0,False,57.0261001
Fe3RhN,5,Fe3 Rh1 N1,3.83973055,3.83963097,3.83894589,90.0,90.0,90.0,cubic,Pm-3m,9.5591468,-8.368635934,-0.146106085,0.0,8.345426463,0.0,False,56.59814871
FeBO3,10,Fe1 B1 O3,5.521964019,5.521963684,5.521963256,49.74109871,49.74109212,49.74110201,trig,R-3c,9.9999998,-8.269021531,-2.270362332,0.0,4.222110401,1.4816,False,90.18607293
FeCO3,10,Fe1 C1 O3,5.679365808,5.67936593,5.679360259,48.88741061,48.88740146,48.88743182,trig,R-3c,8.0000006,-8.298319626,-1.789805682,0.0,4.030868222,0.0,False,95.45334472
FeSnO3,20,Fe1 Sn1 O3,5.337292043,9.084800173,5.472166757,74.37808331,68.38294472,90.25759005,tri,P-1,16.0231149,-7.323507478,-1.858812262,0.0,6.264690592,0.862,False,235.9626721
Gd3AlC,5,Gd3 Al1 C1,4.94053157,4.93884406,4.94179571,90.0,90.0,90.0,cubic,Pm-3m,21.311725,-11.38146493,-0.340943325,0.0,7.033428752,0.0,False,120.5823603
Gd3InN,5,Gd3 In1 N1,4.87670412,4.87457709,4.877545244,90.01681822,90.03453621,89.95861864,cubic,Pm-3m,21.888467,-33.47216571,-1.092494318,0.0,8.601054209,0.0,False,115.948316
Gd3SnC,5,Gd3 Sn1 C1,4.94748706,4.9474829,4.94746415,90.0,90.0,90.0,cubic,Pm-3m,21.8300514,-11.70081608,-0.60749527,0.0,8.26101486,0.0,False,121.1020862
Gd3TlC,5,Gd3 Tl1 C1,4.96836386,4.96836698,4.96837114,90.0,90.0,90.0,cubic,Pm-3m,21.2553073,-11.18187285,-0.41617198,0.0,9.3172411,0.0,False,122.6425272
GdAl3Cu,5,Gd1 Al3 Cu1,6.056301753,6.056301753,6.056301753,139.9514558,139.9514558,57.9270134,tet,I4mm,7.117645,-15.36879264,-0.48077338,0.0,5.496854318,0.0,False,91.15251225
GdBO3,30,Gd1 B1 O3,6.630340993,6.63034203,9.681883074,70.33476037,70.33475606,60.09216631,mono,C2/c,42.0000001,-10.61890975,-3.499030348,0.0,6.332712922,3.1001,False,339.9251601
GdBRh3,5,Gd1 B1 Rh3,4.19646217,4.19646627,4.19648879,90.0,90.0,90.0,cubic,Pm-3m,6.2813963,-25.42463664,-0.794227558,0.0,10.71301549,0.0,False,73.90147669
GdCoSi3,5,Gd1 Co1 Si3,5.612877539,5.612877539,5.612877539,137.4665121,137.4665121,61.72105028,tet,I4mm,6.8789372,-8.133100186,-0.636001576,0.0,6.245549425,0.0,False,79.87957773
GdCrO3,20,Gd1 Cr1 O3,5.31706381,5.54613965,7.61618941,90.0,90.0,90.0,ortho,Pnma,40.0000011,-10.8879147,-3.173304159,0.0,7.607718597,2.6309,True,224.5951684
GdGa3Os,15,Gd1 Ga3 Os1,6.42088356,6.42087623,6.42090036,89.99996823,90.00002686,89.99999001,cubic,Pm-3m,20.5617901,-7.362232748,-0.484677201,0.0,10.47530706,0.0,False,264.7189449
GdGa3Ru,15,Gd1 Ga3 Ru1,6.42124033,6.42108281,6.41009931,90.0,90.0,90.0000182,cubic,Pm-3m,6.9923952,-7.069083892,-0.582121322,0.0,8.811498975,0.0,False,264.2968296
GdInO3,30,Gd1 In1 O3,6.367214475,6.367214541,12.34803472,90.00000308,90.00000487,119.9998517,hex_,P6_3cm,42.0000007,-9.283875621,-2.948039821,0.0,7.35549791,1.7714,True,433.5389137
GdMnO3,20,Gd1 Mn1 O3,5.33266967,5.63531689,7.62006186,90.0,90.0,90.0,ortho,Pnma,44.0000015,-10.59835723,-2.981953118,0.0,7.546957429,0.4041,False,228.9926389
GdNiGe3,10,Gd1 Ni1 Ge3,11.01922665,11.01922665,4.127765,90.0,90.0,158.3428095,ortho,Cmmm,13.9813376,-7.329480765,-0.584412268,0.0,7.789809441,0.0,False,184.9716943
GdNiO3,20,Gd1 Ni1 O3,5.23580731,5.49316529,7.47467175,90.0,90.0,90.0,ortho,Pnma,24.0000019,-9.389624715,-2.449596328,0.0,8.154897114,0.0,False,214.9801926
GdRh3C,5,Gd1 Rh3 C1,4.16968333,4.16967923,4.16969563,90.0,90.0,90.0,cubic,Pm-3m,7.000828,-9.540689496,-0.461147228,0.0,10.94828777,0.0,False,72.49533719
GdScS3,20,Gd1 Sc1 S3,6.41368888,7.06362167,9.53369315,90.0,90.0,90.0,ortho,Pnma,28.0000007,-18.04230638,-2.262208398,0.0,4.588943874,1.1774,True,431.9132118
GdSi3Ir,5,Gd1 Si3 Ir1,4.211714,4.211714,5.745584377,111.5009997,111.5009997,90.0,tet,I4mm,6.8707792,-8.65090753,-0.812805428,0.0,8.263298369,0.0,False,87.15827309
GdVO3,20,Gd1 V1 O3,5.340210449,5.67985439,7.572467958,90.13197242,89.91655894,90.03460105,ortho,Pnma,21.9999991,-10.85346617,-3.252683904,0.0,7.408655934,0.0,False,229.6843093
GeH3Cl,10,Ge1 H3 Cl1,4.586317384,4.586318865,8.35736286,90.0,90.0,104.8259431,ortho,Cmc2_1,0.0,-3.735963525,-0.404550759,0.0,2.171531545,4.7492,False,169.9388812
GePbO3,30,Ge1 Pb1 O3,9.346834621,9.346834617,9.34683482,113.5018858,113.5018858,113.5018754,trig,R-3,0.0,-6.565139741,-1.929228153,0.0,6.3557553,2.7131,False,513.9167066
GePbS3,20,Ge1 Pb1 S3,10.51691811,6.899259188,7.398606342,74.60755248,90.0,90.0,mono,P2_1/c,0.0,-4.882144106,-0.73199338,0.0,4.825704315,1.7579,False,517.5790037
GePdS3,10,Ge1 Pd1 S3,3.47151536,7.581681148,9.321243387,106.7401816,90.0,103.2347361,mono,C2/m,0.0,-5.094248789,-0.650651115,0.0,4.007212269,1.3441,False,228.1245166
H3BrO,5,H3 Br1 O1,4.243537036,4.265772796,4.243405519,71.96815334,72.0529535,72.07401259,trig,R3m,0.0,-4.383925334,-1.029843963,0.0,2.432062286,4.4183,True,67.54453392
H3ClO,5,H3 Cl1 O1,4.444629671,4.444629671,4.444630229,65.08674623,65.08674623,65.08674218,trig,R3m,0.0,-4.543942884,-1.147543488,0.0,1.311451607,5.5013,True,68.97691918
H3OF,20,H3 O1 F1,4.17123172,5.89213507,6.10259572,90.0,90.0,90.0,ortho,Pnma,0.0,-4.945832638,-1.53684478,0.0,1.683790799,6.7458,True,149.9863065
HNO3,80,H1 N1 O3,8.40384207,6.186005643,16.23030271,90.02950809,90.0,90.0,mono,P2_1,0.0,-6.205777801,-0.890312362,0.0,1.984190553,3.8657,False,843.7518856
Hf3AlN,10,Hf3 Al1 N1,5.898134001,5.898134001,8.83856158,90.0,90.0,147.4786892,ortho,Cmcm,0.0,-31.35153575,-1.088516715,0.0,11.58153449,0.0,False,165.3030393
Hf3ZnN,10,Hf3 Zn1 N1,5.840821849,5.840821849,8.74354286,90.0,90.0,147.1263711,ortho,Cmcm,0.0,-31.7165886,-1.017868711,0.0,12.61269599,0.0,False,161.9069748
HfBRh3,5,Hf1 B1 Rh3,4.09526278,4.09526278,4.09526278,90.0,90.0,90.0,cubic,Pm-3m,1e-07,-25.80575055,-0.824459452,0.0,12.04060692,0.0,False,68.68237792
HfSnS3,20,Hf1 Sn1 S3,3.70225689,9.38317293,14.17625343,90.0,90.0,90.0,ortho,Pnma,0.0,-20.08704245,-1.28652317,0.0,5.305913745,1.1981,False,492.467686
HgAsO3,10,Hg1 As1 O3,4.86693703,4.866937428,7.69342784,90.0,90.0,120.000004,trig,P-31m,0.0,-5.326915277,-1.36217976,0.0,6.80776484,1.2351,True,157.8199817
HgBrO3,20,Hg1 Br1 O3,9.763821933,9.763821933,8.599402276,72.99835242,72.99835242,26.6274367,mono,C2/c,0.0,-3.753169432,-0.395069115,0.0,6.226071102,3.2015,False,350.4451666
HgNO3,40,Hg1 N1 O3,8.31497555,6.286624987,11.72064329,87.06225777,90.0,90.0,mono,P2_1,0.0,-5.445975905,-0.747609346,0.0,5.701203083,2.5687,False,611.8695775
HgPS3,10,Hg1 P1 S3,6.319751317,6.324721126,7.330869789,95.80298378,106.0667818,118.927447,tri,P-1,0.0,-4.112753571,-0.484708718,0.0,4.600070932,1.7549,False,236.6294941
HgPSe3,20,Hg1 P1 Se3,6.650608626,6.650608626,14.17399574,85.8581518,85.8581518,120.0961229,mono,C2/c,0.0,-20.44250398,-0.181591272,0.0,5.79742048,1.2066,False,536.7001893
HgSeO3,20,Hg1 Se1 O3,5.98911586,6.17326333,8.24957921,90.0,90.0,90.0,ortho,Pnma,0.0,-4.778405937,-1.048512631,0.0,7.133045456,2.5571,False,305.0066543
Ho3AlC,5,Ho3 Al1 C1,4.83811738,4.83811738,4.83811738,90.0,90.0,90.0,cubic,Pm-3m,2.5e-06,-5.754432952,-0.400977008,0.0,7.826810066,0.0,False,113.2476509
Ho3AlN,5,Ho3 Al1 N1,4.71952011,4.71952011,4.71952011,90.0,90.0,90.0,cubic,Pm-3m,7.2e-06,-23.99949418,-1.098518033,0.0,8.463332879,0.0,False,105.1219777
Ho3InN,5,Ho3 In1 N1,4.76233324,4.76233324,4.76233324,90.0,90.0,90.0,cubic,Pm-3m,9e-07,-6.045183208,-1.067085231,0.0,9.587530653,0.0,False,108.0088506
Ho3PbC,5,Ho3 Pb1 C1,4.86345615,4.86345615,4.86345615,90.0,90.0,90.0,cubic,Pm-3m,6.5e-06,-5.887032368,-0.540162176,0.0,10.30654978,0.0,False,115.0363288
HoAl3Cu,5,Ho1 Al3 Cu1,4.096633731,4.096610026,6.046864735,70.23384906,70.23457676,90.04531084,tet,I4mm,0.0,-4.410639862,-0.423917137,0.0,5.765852897,0.0,False,89.11180377
HoB3Mo,10,Ho1 B3 Mo1,3.1542658,5.414664463,6.816896815,78.02809308,90.0,90.0,mono,P2_1/m,0.0,-7.721558506,-0.625257528,0.0,8.552437589,0.0,False,113.8953932
HoBO3,30,Ho1 B1 O3,6.505299084,6.505299084,8.78765674,90.0,90.0,120.0681046,ortho,Cmcm,0.0,-8.781244773,-3.557053923,0.0,6.926331102,5.4365,False,321.8398383
HoBRh3,5,Ho1 B1 Rh3,4.16588183,4.16588183,4.16588183,90.0,90.0,90.0,cubic,Pm-3m,0.6651276,-7.476134166,-0.802135197,0.0,11.12715732,0.0,False,72.29709375
HoCoO3,20,Ho1 Co1 O3,5.11319813,5.42543382,7.33341945,90.0,90.0,90.0,ortho,Pnma,1e-07,-7.946192691,-2.631196851,0.0,8.876127322,0.0,False,203.4387215
HoCrO3,20,Ho1 Cr1 O3,5.21129171,5.52912416,7.5265797,90.0,90.0,90.0,ortho,Pnma,12.0000005,-9.045650314,-3.226728324,0.0,8.113944215,2.4964,False,216.869956
HoGa3Os,15,Ho1 Ga3 Os1,6.36697945,6.36697945,6.36697945,90.0,90.0,90.0,cubic,Pm-3m,0.311283,-5.464566115,-0.482699123,0.0,10.89187435,0.0,False,258.1073337
HoGa3Ru,15,Ho1 Ga3 Ru1,6.36198614,6.36198614,6.36198614,90.0,90.0,90.0,cubic,Pm-3m,1.7e-06,-5.174485207,-0.583211192,0.0,9.192647103,0.0,False,257.500547
HoMnO3,30,Ho1 Mn1 O3,6.107331392,6.107331675,11.40796997,90.00001482,90.00000886,119.9997037,hex_,P6_3cm,24.0,-8.788998593,-3.068283038,0.0,7.242284251,0.0,False,368.5049195
HoNiGe3,10,Ho1 Ni1 Ge3,10.9123359,10.9123359,4.06326307,90.0,90.0,158.6064482,ortho,Cmmm,0.0,-5.410823922,-0.56144398,0.0,8.308467373,0.0,False,176.4947887
HoNiO3,20,Ho1 Ni1 O3,5.13100678,5.49720193,7.36043418,90.0,90.0,90.0,ortho,Pnma,4.0,-7.551576216,-2.507236384,0.0,8.690128359,0.0,False,207.6097341
HoRh3C,5,Ho1 Rh3 C1,4.14152903,4.14152903,4.14152903,90.0,90.0,90.0,cubic,Pm-3m,1.7e-06,-7.697408394,-0.51355468,0.0,11.35264573,0.0,False,71.03659393
HoRhO3,20,Ho1 Rh1 O3,5.20253763,5.73954677,7.55043384,90.0,90.0,90.0,ortho,Pnma,2e-07,-7.948614022,-2.587439952,0.0,9.30471898,0.9606,True,225.4575253