formula,sites,composition,a_edge (angstrom),b_edge (angstrom),c_edge (angstrom),alpha_ang (deg),beta_ang (deg),gamma_ang (deg),crystal_system,space_group,total_magnetisation (bohr),energy_per_atom (eV/atom),formation_energy (eV/atom),energy_above_hull (eV/atom),density (g/cc),band_gap (eV),direct_bandgap,volume (cubic-angstrom)
CaTcO3,20,Ca1 Tc1 O3,5.42016857,5.59445017,7.74489509,90.0,90.0,90.0,ortho,Pnma,12.0039714,-7.917140687,-2.475116318,0.0,5.262767384,0.0,False,234.8473926
CaTeO3,100,Ca1 Te1 O3,12.11414408,12.11414408,11.07393812,90.0,90.0,90.0,tet,P4_1,0.0,-6.409629036,-2.411071278,0.0,4.407514549,2.895,False,1625.127958
CaTiO3,20,Ca1 Ti1 O3,5.37204886,5.46279649,7.63635962,90.0,90.0,90.0,ortho,Pnma,0.0,-8.50508214,-3.556087157,0.0,4.029259414,2.3053,True,224.0997377
CaTlBr3,10,Ca1 Tl1 Br3,7.406002468,7.406002468,10.87564125,90.0,90.0,146.5703633,ortho,Cmcm,0.0,-3.773300504,-1.915718184,0.0,4.892994482,3.7234,False,328.6284841
CaTlCl3,10,Ca1 Tl1 Cl3,4.070888618,7.075985436,10.33872924,90.0,90.0,106.7970545,ortho,Cmcm,0.0,-4.210446287,-2.225909892,0.0,4.086550331,4.2088,False,285.1063936
CaWN3,10,Ca1 W1 N3,3.629991136,5.796946249,7.44986265,105.7650397,104.1007684,90.00000299,mono,C2/m,0.0,-17.9643365,-0.805868477,0.0,6.051179305,0.5612,False,145.9552203
CaZrO3,20,Ca1 Zr1 O3,5.58500572,5.77809678,8.01738023,90.0,90.0,90.0,ortho,Pnma,0.0,-8.749611775,-3.670175069,0.0,4.603084506,3.8263,True,258.7265008
CdBiO3,10,Cd1 Bi1 O3,5.829561946,5.830423031,5.972227016,60.77515692,119.1751925,119.979308,trig,R3,0.0,-5.373882152,-1.435096649,0.0,8.444817808,0.767,False,145.2691758
CdCO3,10,Cd1 C1 O3,6.145127278,6.145126917,6.145126563,47.52436093,47.52436881,47.52435309,trig,R-3c,0.0,-6.761938697,-1.755426957,0.0,4.956502911,2.6226,False,115.5290272
CdNi3N,5,Cd1 Ni3 N1,3.82153146,3.82154162,3.82153349,90.0,90.0,90.0,cubic,Pm-3m,1.1e-05,-13.13645322,-0.100675256,0.0,9.000316019,0.0,False,55.81021594
CdPS3,10,Cd1 P1 S3,6.253369407,6.253369838,7.08480051,98.18604281,98.18605262,119.997975,mono,C2/m,0.0,-11.16902908,-0.526616825,0.0,3.459377514,1.7562,False,230.0018155
CdPSe3,10,Cd1 P1 Se3,7.97359843,7.973598429,7.973597804,48.60264365,48.60264369,48.60264447,trig,R-3,0.0,-3.954065545,-0.581421915,0.0,4.825860987,1.0486,False,261.6919528
CdPbO3,40,Cd1 Pb1 O3,9.085826746,9.085836675,9.085830953,110.5117259,109.8982517,108.0141558,ortho,Ibca,0.0,-5.278432031,-1.375123976,0.0,8.462073206,0.0,False,577.0968158
CdSeO3,20,Cd1 Se1 O3,5.32817807,6.31758539,8.12471485,90.0,90.0,90.0,ortho,Pnma,0.0,-5.274442168,-1.414481231,0.0,5.813522774,3.0904,False,273.4878134
CdSiO3,60,Cd1 Si1 O3,7.28599731,6.992660796,15.10775788,85.123904,90.0,90.0,mono,P2_1/c,0.0,-6.781450763,-2.535608516,0.0,4.897479562,2.8901,False,766.9319925
CdSnO3,10,Cd1 Sn1 O3,5.933372171,5.933372293,5.933373283,55.14847345,55.14848066,55.14848451,trig,R-3,0.0,-5.800440844,-1.837747832,0.0,7.073964607,0.9762,False,131.0406149
CdTeO3,40,Cd1 Te1 O3,11.30735991,7.451632652,7.831885009,66.44744827,90.0,90.0,mono,P2_1/c,0.0,-5.311071547,-1.521631728,0.0,6.32473192,3.019,False,604.9274932
Ce3AlC,5,Ce3 Al1 C1,4.98731642,4.98731967,4.98728285,90.0,90.0,90.0,cubic,Pm-3m,2.5469901,-6.38450763,-0.227489443,0.0,6.148730535,0.0,False,124.0503884
Ce3AlN,5,Ce3 Al1 N1,4.90922468,4.90926019,4.90924297,90.0,90.0,90.0,cubic,Pm-3m,2.5442481,-22.57630806,-0.899761008,0.0,6.474752647,0.0,False,118.316002
Ce3InC,5,Ce3 In1 C1,5.04591409,5.0459467,5.04587929,90.0,90.0,90.0,cubic,Pm-3m,2.5884167,-6.279061686,-0.319323917,0.0,7.07224546,0.0,False,128.4752193
Ce3SnN,5,Ce3 Sn1 N1,4.97328277,4.97332533,4.97330351,90.0,90.0,90.0,cubic,Pm-3m,3.0449487,-7.078435412,-1.04669557,0.0,7.466035505,0.0,False,123.0084615
CeAl3Ag,5,Ce1 Al3 Ag1,4.305624527,4.305624507,6.321598309,70.16755411,70.16752025,90.10063256,tet,I4mm,1.030045,-4.353065484,-0.349742476,0.0,5.31349794,0.0,False,102.7946477
CeAl3Au,5,Ce1 Al3 Au1,6.250577623,6.250577623,6.250577623,139.5892607,139.5892607,58.47748186,tet,I4mm,0.9612973,-4.669232456,-0.579720584,0.0,6.826720171,0.0,False,101.681401
CeAl3Cu,5,Ce1 Al3 Cu1,6.094870783,6.094870783,6.094870783,139.4241182,139.4241182,58.72874578,tet,I4mm,0.9327153,-12.86933641,-0.492592462,0.0,4.980354881,0.0,False,94.89291736
CeAlO3,20,Ce1 Al1 O3,5.29975512,5.35162614,7.53646362,90.0,90.0,90.0,ortho,Imma,4.0000001,-8.525620271,-3.620338528,0.0,6.683927318,0.0,False,213.7515027
CeBO3,20,Ce1 B1 O3,5.07545184,5.77348995,8.22244861,90.0,90.0,90.0,ortho,Pnma,4.0000001,-8.904444915,-3.412399984,0.0,5.483837777,0.0587,False,240.9429888
CeBPt3,5,Ce1 B1 Pt3,3.99756756,3.99756756,5.14411559,90.0,90.0,90.0,tet,P4mm,0.9056964,-39.51828141,-0.988254681,0.0,14.87065777,0.0,False,82.20577786
CeBRh3,5,Ce1 B1 Rh3,4.21149204,4.2115074,4.21148897,90.0,90.0,90.0,cubic,Pm-3m,0.1962417,-22.91903898,-0.799905212,0.0,10.21788477,0.0,False,74.6980423
CeCoGe3,5,Ce1 Co1 Ge3,4.297285198,4.297286285,5.75826604,111.9094544,111.9094359,89.9999953,tet,I4mm,0.9140908,-5.958657668,-0.570767637,0.0,7.665580972,0.0,False,90.32500477
CeCoSb3,40,Ce1 Co1 Sb3,6.174765298,12.11587185,12.79168944,90.00072113,90.03978436,90.00042549,ortho,Pbcm,6.4822489,-5.759325206,-0.667851144,0.0,7.83373137,0.0,False,956.9801469
CeCoSi3,5,Ce1 Co1 Si3,5.54809688,5.54809688,5.54809688,136.673224,136.673224,62.94121987,tet,I4mm,0.0033292,-6.527114158,-0.657850022,0.0,5.925122785,0.0,False,79.39754017
CeCrGe3,10,Ce1 Cr1 Ge3,6.10950878,6.109507322,5.94625055,90.0,90.0,120.0000135,hex_,P6_3/mmc,3.0485012,-6.317880738,-0.426064557,0.0,7.084524239,0.0,False,192.2145504
CeCrS3,20,Ce1 Cr1 S3,3.77068444,7.86657679,13.07550999,90.0,90.0,90.0,ortho,Pnma,15.9356442,-7.27207448,-1.671059271,0.0,4.937417072,0.0,False,387.850729
CeCrSe3,20,Ce1 Cr1 Se3,3.95426344,8.21435316,13.73207985,90.0,90.0,90.0,ortho,Pnma,16.0008775,-6.686768557,-1.471222202,0.0,6.3882675,0.0,False,446.041523
CeDyS3,20,Ce1 Dy1 S3,4.0179022,7.43522514,15.31969114,90.0,90.0,90.0,ortho,Pnma,4.0002259,-19.78914345,-2.4036576,0.0,5.78805598,0.0,False,457.6605672
CeFeGe3,5,Ce1 Fe1 Ge3,4.337515044,4.33751496,5.817986844,111.8863991,111.8863996,90.00001103,tet,I4mm,1.9413085,-6.159665924,-0.504454995,0.0,7.38881174,0.0,False,93.01435651
CeGa3Au,5,Ce1 Ga3 Au1,4.339874232,4.339777339,6.163721618,69.54943372,69.54761994,90.14533346,tet,I4mm,1.0052469,-4.216508252,-0.557484264,0.0,8.991350438,0.0,False,100.8827402
CeGa3Cu,5,Ce1 Ga3 Cu1,6.024622254,6.024622254,6.024622254,139.2127503,139.2127503,59.05059915,tet,I-4m2,0.8974445,-15.73066232,-0.527511802,0.0,7.417516502,0.0,False,92.41934322
CeGa3Pd,10,Ce1 Ga3 Pd1,6.067060161,6.067060161,5.85096203,90.0,90.0,116.5099518,ortho,Cmcm,2.0792645,-4.724782547,-0.684558597,0.0,7.852816309,0.0,False,192.724731
CeGe3Ir,5,Ce1 Ge3 Ir1,4.418200719,4.418200412,5.924727068,111.8921749,111.892168,89.999992,tet,I4mm,0.9814486,-6.383733436,-0.654839913,0.0,9.298201204,0.0,False,98.26810401
CeGe3Rh,5,Ce1 Ge3 Rh1,5.912687084,5.912687084,5.912687084,136.2746128,136.2746128,63.55606405,tet,I4mm,0.9649512,-6.122171596,-0.688103335,0.0,7.852933349,0.0,False,97.46821145
CeGe3Ru,40,Ce1 Ge3 Ru1,9.03402787,9.03402787,9.03402787,90.0,90.0,90.0,cubic,Pm-3n,2.8677902,-6.418039504,-0.601952309,0.0,8.271947605,0.0,False,737.300075
CeNiSb3,40,Ce1 Ni1 Sb3,6.217198126,12.08356078,12.51647355,90.00087633,89.9912925,90.00095176,ortho,Pbcm,0.2107878,-5.528747881,-0.707929827,0.0,7.969212437,0.0,False,940.3112221
CeRu3C,5,Ce1 Ru3 C1,4.15944336,4.15944336,4.15944336,90.0,90.0,90.0,cubic,Pm-3m,3.87e-05,-8.838676454,-0.240911858,0.0,10.50693653,0.0,False,71.9624009
CeScS3,20,Ce1 Sc1 S3,6.5266654,7.18960587,9.59404885,90.0,90.0,90.0,ortho,Pnma,3.9999999,-15.58355319,-2.31473052,0.0,4.149821121,0.0,False,450.1926053
CeSi3Ir,5,Ce1 Si3 Ir1,5.760735721,5.760735721,5.760735721,136.835617,136.835617,62.69106985,tet,I4mm,0.8827733,-7.050214108,-0.83994648,0.0,7.828437386,0.0,False,88.36541769
CeSi3Os,5,Ce1 Si3 Os1,5.816297436,5.816297436,5.816297436,137.5367411,137.5367411,61.61324692,tet,I4mm,0.69443,-7.343072388,-0.65501811,0.0,7.765817587,0.0,False,88.65308007
CeSi3Pt,5,Ce1 Si3 Pt1,5.700786498,5.700786498,5.700786498,135.5022312,135.5022312,64.75083956,tet,I4mm,0.9400155,-6.454675248,-0.797867792,0.0,7.762667045,0.0,False,89.72739665
CeSi3Rh,5,Ce1 Si3 Rh1,5.749593511,5.749593511,5.749593511,136.9262954,136.9262954,62.55147273,tet,I4mm,0.9008611,-6.736205532,-0.820763166,0.0,6.20617166,0.0,False,87.56733368
CeSi3Ru,5,Ce1 Si3 Ru1,4.197605821,4.197605119,5.785440998,111.2706126,111.2706053,89.9999986,tet,I4mm,0.7879054,-7.019979984,-0.722518684,0.0,6.176059397,0.0,False,87.50077524
CeSiPt3,5,Ce1 Si1 Pt3,4.07683441,4.07683441,5.49257428,90.0,90.0,90.0,tet,P4mm,0.8595045,-6.96933383,-1.054200258,0.0,13.70513978,0.0,False,91.28976367
CeSn3Ru,40,Ce1 Sn3 Ru1,9.83108,9.83108,9.83108,90.0,90.0,90.0,cubic,Pm-3n,0.0645792,-5.96755362,-0.519540024,0.0,8.351020352,0.0053,False,950.175199
CeTiGe3,10,Ce1 Ti1 Ge3,5.88547431,6.24969541,6.249662113,119.9994634,89.99973222,89.999548,hex_,P6_3/mmc,1.8663144,-6.209606585,-0.669301495,0.0,6.771291595,0.0,False,199.0810112
ClOF3,20,Cl1 O1 F3,4.840671761,7.736365895,7.719745104,102.7205879,89.78477273,89.91727654,tri,P-1,0.0,-3.424867967,-0.918681053,0.0,2.554349159,3.6609,False,281.9998069
CoBiO3,5,Co1 Bi1 O3,3.72444997,3.72443794,4.02083227,90.0,90.0,90.0,tet,P4mm,0.0,-6.632379522,-1.458912713,0.0,9.405374547,0.0,False,55.77490557
CoCO3,10,Co1 C1 O3,5.600724049,5.600796878,5.600603551,49.09562594,49.09799842,49.0918071,trig,R-3c,5.9982556,-7.907360729,-1.666167683,0.0,4.28599732,0.0,False,92.16431121
CoNiO3,10,Co1 Ni1 O3,4.805549005,4.80584566,5.174955284,62.33176629,117.6711453,120.0070479,trig,R-3,2.000238,-6.688139231,-1.136651948,0.0,6.296421914,0.0,False,87.35959764
CoSeO3,80,Co1 Se1 O3,9.453972892,9.455632534,15.21171729,72.62075671,72.61310859,64.47336131,mono,C2/c,0.0038762,-6.405229011,-1.310586768,0.0,4.302175399,0.0,False,1147.995681
CrBO3,10,Cr1 B1 O3,5.445644799,5.445645192,5.445640516,49.79199416,49.79199045,49.79199964,trig,R-3c,6.0000002,-8.855383028,-2.620118577,0.0,4.247466036,0.0,False,86.63825815
CrGaSe3,20,Cr1 Ga1 Se3,3.76641143,10.26003063,12.49218408,90.0,90.0,90.0,ortho,Pnma,12.0000004,-5.495538904,-0.861763318,0.0,4.934049389,0.0,False,482.7416735
CrGeTe3,10,Cr1 Ge1 Te3,8.22483787,8.224837554,8.224837076,49.62885504,49.62884833,49.62884945,trig,R-3,6.0000001,-5.160704223,-0.419505622,0.0,5.675113859,0.0,False,296.9517401
CrSbS3,20,Cr1 Sb1 S3,3.64237683,8.85576533,12.90915925,90.0,90.0,90.0,ortho,Pnma,11.9999999,-6.024536981,-0.785111498,0.0,4.306111367,0.0,False,416.3982855
CrSbSe3,20,Cr1 Sb1 Se3,3.82541442,9.32794413,13.52534271,90.0,90.0,90.0,ortho,Pnma,11.9978041,-5.540308449,-0.68635182,0.0,5.651366987,0.0,False,482.6282121
CrSiTe3,10,Cr1 Si1 Te3,8.259897013,8.25989776,8.259897444,48.84663891,48.84663822,48.84664312,trig,R-3,6.0000001,-5.340600708,-0.438944072,0.0,5.242190017,0.0,False,293.2488054
Cs3AuO,10,Cs3 Au1 O1,7.85221889,7.852218079,7.08932365,90.0,90.0,119.9999991,hex_,P6_3/mmc,0.0,-3.05530406,-0.871697987,0.0,5.366422164,1.3261,False,378.5473321
Cs3BrO,10,Cs3 Br1 O1,7.841265711,7.841265711,7.12849225,90.0,90.0,119.9999987,hex_,P6_3/mmc,0.0,-3.409331851,-1.553112871,0.0,4.327627694,1.5515,False,379.5776742
Cs3IO,10,Cs3 I1 O1,8.115433731,8.115433731,7.2073345,90.0,90.0,120.0000019,hex_,P6_3/mmc,0.0,-3.290399019,-1.456766823,0.0,4.375676369,1.5285,True,411.082296
CsAgBr3,5,Cs1 Ag1 Br3,5.497825,5.494482,5.494832419,89.94623729,90.0,90.0,ortho,Amm2,0.0047664,-2.9694168,-1.238915519,0.0,4.806817055,0.0,False,165.9861789
CsAgCl3,10,Cs1 Ag1 Cl3,7.26308157,7.26308194,7.367583412,119.5239302,119.5239311,90.01406476,tet,I4/mmm,4e-07,-14.24546407,-1.262984392,0.0,4.136571189,0.0,False,278.6981311
CsAgF3,10,Cs1 Ag1 F3,6.253492187,6.25349198,6.253492716,91.29504521,119.255156,119.2551389,tet,I4/mcm,6.49e-05,-13.23150615,-2.066297088,0.0,5.656703749,0.0,False,174.8215389
CsAlTe3,20,Cs1 Al1 Te3,14.12703173,7.28206706,8.296571453,76.08096223,90.0,90.0,mono,P2_1/c,0.0,-22.42296506,-0.806369902,0.0,4.35108513,1.3209,False,828.4397309
CsAsO3,20,Cs1 As1 O3,5.33191898,6.05643105,11.77973995,90.0,90.0,90.0,ortho,Pbcm,0.0,-5.973052514,-1.890505581,0.0,4.467005398,2.8702,False,380.3960704
CsAuBr3,10,Cs1 Au1 Br3,7.810130999,7.810131921,7.958570721,119.384907,119.3849062,89.99999244,tet,I4/mmm,0.0,-3.037363019,-1.220672874,0.0,5.41153036,0.653,False,349.5560241
CsAuCl3,10,Cs1 Au1 Cl3,7.46498905,7.464989609,7.615689598,119.3475383,119.347547,90.00000305,tet,I4/mmm,0.0,-20.02434803,-1.196051755,0.0,4.735835795,0.5386,False,305.9137536
CsAuI3,10,Cs1 Au1 I3,8.39381681,8.393815879,8.526452143,119.4867412,119.4867451,89.9999958,tet,I4/mmm,0.0,-2.696688998,-0.947759205,0.0,5.471687383,0.7337,True,431.2946942
CsAuSe3,10,Cs1 Au1 Se3,6.592005256,7.695256202,7.732700027,81.02189656,68.63364999,64.64449123,mono,C2/c,0.0,-24.30635254,-0.582583462,0.0,5.70185069,1.0527,False,330.1082133
CsBSe3,20,Cs1 B1 Se3,6.206779423,7.702960693,12.95795499,90.0,90.0,106.8241571,mono,P2_1/c,0.0,-4.469022845,-0.85585178,0.0,4.262965177,1.7167,False,593.0100301
CsBaI3,20,Cs1 Ba1 I3,5.27736676,10.58078051,18.51071733,90.0,90.0,90.0,ortho,Pnma,0.0,-3.402267388,-1.924319006,0.0,4.183075736,3.6259,True,1033.613639
CsBeF3,20,Cs1 Be1 F3,4.84401504,6.00417243,12.51777016,90.0,90.0,90.0,ortho,Pnma,0.0,-5.481874888,-3.40735911,0.0,3.628994437,6.6443,False,364.0706021
CsBeH3,10,Cs1 Be1 H3,5.070669727,5.91286537,7.806349522,90.0,108.863848,90.0,mono,P2_1/m,0.0,-3.170810747,-0.206082487,0.0,2.173383439,3.2298,False,221.4804274
CsBrO3,5,Cs1 Br1 O3,4.639254737,4.639254476,4.639254038,88.72505696,88.72504892,88.72505622,trig,R3m,2.2e-06,-4.536734756,-1.060823022,0.0,4.340530526,4.1681,True,99.77612006
CsCaBr3,5,Cs1 Ca1 Br3,5.70866573,5.70866573,5.70866573,90.0,90.0,90.0,cubic,Pm-3m,0.0,-3.86891267,-2.305878949,0.0,3.683620991,4.3923,False,186.0389335
CsCaCl3,10,Cs1 Ca1 Cl3,7.667754568,7.667754568,7.667754568,120.3564945,120.3564945,89.38363448,tet,I4/mcm,0.0,-12.65523278,-2.536269789,0.0,2.926173996,5.2834,False,317.0413345
CsCaF3,5,Cs1 Ca1 F3,4.52053103,4.52053103,4.52053103,90.0,90.0,90.0,cubic,Pm-3m,0.0,-12.02079677,-3.719104391,0.0,4.133979088,6.9005,False,92.37795929
CsCaI3,20,Cs1 Ca1 I3,4.72814982,10.71713597,17.79891735,90.0,90.0,90.0,ortho,Pnma,0.0,-3.338127447,-1.842854078,0.0,4.077721813,3.8335,True,901.9107359
CsCdBr3,10,Cs1 Cd1 Br3,7.75054773,7.750548518,6.75925007,90.0,90.0,120.0000011,hex_,P6_3/mmc,0.0,-2.941244357,-1.587328574,0.0,4.580916049,2.901,True,351.6365217
CsCdCl3,30,Cs1 Cd1 Cl3,7.466469158,7.466416524,18.57527651,90.0000612,89.99979472,119.9998571,hex_,P6_3/mmc,0.0,-14.43802319,-1.7057214,0.0,3.907044594,2.4918,True,896.796767
CsCdF3,5,Cs1 Cd1 F3,4.48681068,4.48681068,4.48681068,90.0,90.0,90.0,cubic,Pm-3m,0.0,-13.61419207,-2.699160898,0.0,5.557644493,3.2859,False,90.32609495
CsCoCl3,10,Cs1 Co1 Cl3,7.256539238,7.256705054,5.987522457,90.00539652,89.99469254,120.0071627,hex_,P6_3/mmc,6.0000001,-12.87491989,-1.516769419,0.0,3.627169502,0.0,False,273.0331968
CsCrCl3,10,Cs1 Cr1 Cl3,6.259593661,7.25528116,7.290849812,119.8385769,88.50767167,89.99987157,mono,C2/m,8.0000005,-13.44975245,-1.723779723,0.0,3.369328061,0.1533,False,287.0896014
CsCuBr3,20,Cs1 Cu1 Br3,7.469930645,7.469930645,12.73041553,90.0,90.0,117.9697667,ortho,C222_1,0.0,-3.233106413,-1.251351334,0.0,4.617702428,0.3736,False,627.3825242
CsCuCl3,30,Cs1 Cu1 Cl3,7.283517815,7.282651012,18.18519688,89.99983664,89.99982198,119.9995444,hex_,P6_122,6.0000003,-12.21473726,-1.334073815,0.0,3.61151889,0.5494,True,835.3747005
Ti3SnH,5,Ti3 Sn1 H1,4.16614803,4.16665784,4.16499926,90.0,90.0,90.0,cubic,Pm-3m,1.168275,-13.83689028,-0.433976838,0.0,6.047748629,0.0,False,72.29986126
Ti3ZnN,10,Ti3 Zn1 N1,5.538218553,5.538218553,8.29981295,90.0,90.0,147.8391702,ortho,Cmcm,1e-07,-7.628054908,-0.971155427,0.0,5.465796293,0.0,False,135.5074075
TiCdO3,10,Ti1 Cd1 O3,5.823052726,5.823053588,5.823052171,53.69843079,53.69841846,53.69841719,trig,R-3,0.0,-7.411338015,-2.671460971,0.0,5.810462307,2.9057,False,119.0441478
TiFeO3,20,Ti1 Fe1 O3,5.130769391,5.554206937,8.954461721,106.2221753,89.46683158,115.5815896,tri,P-1,4e-07,-8.971592041,-2.729712793,0.0,4.597795231,2.2487,False,219.1665363
TiGeS3,20,Ti1 Ge1 S3,3.47928158,9.11405508,13.69769828,90.0,90.0,90.0,ortho,Pnma,0.0,-6.167187987,-1.180468272,0.0,3.313776287,0.3237,False,434.3589979
TiMnO3,10,Ti1 Mn1 O3,5.575393352,5.575393558,5.575393013,54.84196489,54.84195498,54.84195199,trig,R-3,10.0000004,-9.334882121,-2.954604056,0.0,4.644506556,2.0049,False,107.8326305
TiNiO3,10,Ti1 Ni1 O3,5.41866629,5.418698845,5.418672895,55.29147001,55.29143615,55.29128464,trig,R-3,4.0000001,-8.300620009,-2.596717667,0.0,5.123127762,0.0,False,100.1929311
TiPN3,20,Ti1 P1 N3,6.369055156,6.369055156,4.960984612,81.45446686,81.45446686,85.57015415,mono,C2/c,0.0,-10.92226674,-1.057049673,0.0,4.085692905,0.5396,False,196.4848437
TiPbO3,5,Ti1 Pb1 O3,3.8795519,3.8795519,4.28588762,90.0,90.0,90.0,tet,P4mm,0.0,-8.020994206,-2.730589786,0.0,7.801556472,1.813,False,64.50656432
TiVO3,10,Ti1 V1 O3,5.04364651,5.541768605,5.043644669,117.0682451,120.0011923,62.93141434,trig,R3c,6.0,-9.394272778,-3.029616558,0.0,4.69376623,0.0,False,103.8732006
TlBSe3,10,Tl1 B1 Se3,6.207316083,7.171495639,7.161215721,109.1490773,103.5047887,113.4766758,mono,Cc,0.0,-20.98971688,-0.297648989,0.0,5.990317227,0.9154,False,250.6334832
TlCdCl3,20,Tl1 Cd1 Cl3,3.97942577,9.0244099,14.90375801,90.0,90.0,90.0,ortho,Pnma,0.0,-3.209719188,-1.434300731,0.0,5.251360211,3.2976,False,535.2233003
TlCdF3,40,Tl1 Cd1 F3,6.16844095,8.7315402,12.59989595,90.0,90.0,90.0,ortho,Pbam,0.0,-18.76288693,-2.231835745,0.0,7.316998483,3.9371,True,678.6302715
TlGeBr3,20,Tl1 Ge1 Br3,4.18124614,9.50260894,15.54896534,90.0,90.0,90.0,ortho,Pnma,0.0,-3.40783439,-1.026766475,0.0,5.555550922,2.2566,False,617.8031052
TlGeCl3,10,Tl1 Ge1 Cl3,7.195688,5.743545,8.347123342,70.25346803,90.0,90.0,mono,P2_1/m,6.59e-05,-3.792086486,-1.284064496,0.0,3.921404834,3.3207,False,324.6904176
TlHPd3,5,Tl1 H1 Pd3,4.09795544,4.09795544,4.09795544,90.0,90.0,90.0,cubic,Pm-3m,3e-07,-25.37785356,-0.274698002,0.0,12.65954527,0.0,False,68.81794425
TlHgCl3,20,Tl1 Hg1 Cl3,4.36965245,9.24800615,14.07342645,90.0,90.0,90.0,ortho,Pnma,0.0,-2.787549608,-1.142198781,0.0,5.971967872,2.671,False,568.7152231
TlHgF3,40,Tl1 Hg1 F3,6.20059644,8.82826901,13.07913115,90.0,90.0,90.0,ortho,Pbam,0.0,-24.08524523,-1.70163028,0.0,8.571632395,2.3394,True,715.9586155
TlIO3,5,Tl1 I1 O3,4.504218648,4.504218742,4.50421841,88.77705877,88.77706451,88.7770726,trig,R3m,0.0,-4.716762884,-0.968889335,0.0,6.89684091,2.7633,False,91.31995052
TlNO3,40,Tl1 N1 O3,6.18047927,7.91332221,12.19729243,90.0,90.0,90.0,ortho,Pnma,0.0,-6.098233439,-0.987506864,0.0,5.932115907,2.8457,False,596.5466891
TlPO3,40,Tl1 P1 O3,7.58522238,7.58522238,11.10122861,90.0,90.0,90.0,tet,P-42_1c,0.0,-6.783894437,-2.257728706,0.0,5.893356114,3.6726,True,638.7158328
TlPS3,10,Tl1 P1 S3,6.980750494,6.999774902,6.999774611,70.36205725,60.08985662,60.08986157,ortho,Immm,0.0,-4.665118756,-0.624713887,0.0,4.313946314,1.7362,False,255.2443222
TlPdF3,5,Tl1 Pd1 F3,4.27132955,4.271401243,4.272203517,89.54619825,89.95402999,89.78202819,cubic,Pm-3m,2.11e-05,-18.69623311,-1.594088746,0.0,7.835930471,0.0,False,77.94145138
TlSbO3,20,Tl1 Sb1 O3,5.33070696,5.330706616,14.72638829,90.0,90.0,120.0000021,trig,P-31c,0.0,-5.981538722,-1.712667448,0.0,6.857226772,2.4365,True,362.4069017
TlSnF3,40,Tl1 Sn1 F3,10.34000475,10.34000475,8.183366199,72.42183243,72.42183243,81.39369261,mono,Cc,0.0,-19.67674249,-2.217452096,0.0,6.363346285,2.8207,False,793.4841709
TlSnI3,10,Tl1 Sn1 I3,7.890112575,7.890112575,11.79080057,90.0,90.0,146.0255723,ortho,Cmcm,0.0,-2.996075997,-0.805459634,0.0,5.698343986,1.8624,False,410.1888339
TlZnF3,5,Tl1 Zn1 F3,4.124461556,4.115024681,4.117341669,89.97427478,89.9641359,89.98168307,cubic,Pm-3m,0.0,-16.62163937,-2.32946521,0.0,7.765297258,3.9179,False,69.88057355