formula,sites,composition,a_edge (angstrom),b_edge (angstrom),c_edge (angstrom),alpha_ang (deg),beta_ang (deg),gamma_ang (deg),crystal_system,space_group,total_magnetisation (bohr),energy_per_atom (eV/atom),formation_energy (eV/atom),energy_above_hull (eV/atom),density (g/cc),band_gap (eV),direct_bandgap,volume (cubic-angstrom)
Tm3AlN,5,Tm3 Al1 N1,4.65734774,4.65734774,4.65734774,90.0,90.0,90.0,cubic,Pm-3m,2.77e-05,-25.36973389,-1.124935118,0.0,9.004257142,0.0,False,101.0220081
Tm3InN,5,Tm3 In1 N1,4.70132412,4.70132412,4.70132412,90.0,90.0,90.0,cubic,Pm-3m,7.4e-06,-28.63813744,-1.224040254,0.0,10.15759936,0.0,False,103.9107742
Tm3PbC,5,Tm3 Pb1 C1,4.80484245,4.80484245,4.80484245,90.0,90.0,90.0,cubic,Pm-3m,1e-06,-5.836256006,-0.558492606,0.0,10.86816534,0.0,False,110.9270479
TmBRh3,5,Tm1 B1 Rh3,4.15099888,4.15099888,4.15099888,90.0,90.0,90.0,cubic,Pm-3m,0.0025981,-7.473258072,-0.8222947,0.0,11.34022769,0.0,False,71.52499706
TmCrO3,20,Tm1 Cr1 O3,5.16618224,5.50964451,7.48369507,90.0,90.0,90.0,ortho,Pnma,11.9999998,-9.043294906,-3.247408514,0.0,8.385646497,2.6809,False,213.0146064
TmGa3Os,15,Tm1 Ga3 Os1,6.34071476,6.34071476,6.34071476,90.0,90.0,90.0,cubic,Pm-3m,9.3e-06,-25.04395881,-0.557037808,0.0,11.10602729,0.0,False,254.9263043
TmGa3Ru,15,Tm1 Ga3 Ru1,6.3337215,6.3337215,6.3337215,90.0,90.0,90.0,cubic,Pm-3m,3.4e-06,-5.147045222,-0.578806804,0.0,9.394766534,0.0,False,254.0837493
TmMnO3,30,Tm1 Mn1 O3,6.053196567,6.053196567,11.35090639,90.0000004,90.00000095,119.999872,hex_,P6_3cm,23.9999996,-8.795841926,-3.098161969,0.0,7.52022914,0.0,False,360.1896989
TmRh3C,5,Tm1 Rh3 C1,4.12603139,4.12603139,4.12603139,90.0,90.0,90.0,cubic,Pm-3m,7e-07,-7.69951597,-0.538697854,0.0,11.57570347,0.0,False,70.24211553
TmRhO3,20,Tm1 Rh1 O3,5.17444652,5.70187168,7.51159096,90.0,90.0,90.0,ortho,Pnma,0.0,-7.946072353,-2.60793388,0.0,9.585742424,0.9565,True,221.6222056
TmRu3C,5,Tm1 Ru3 C1,4.11425196,4.11425196,4.11425196,90.0,90.0,90.0,cubic,Pm-3m,1.05e-05,-8.56665041,-0.259775492,0.0,11.54411871,0.0,False,69.64222759
TmVO3,20,Tm1 V1 O3,5.19087594,5.62773952,7.48654988,90.0,90.0,90.0,ortho,Pnma,8.0000001,-9.002079601,-3.320021488,0.0,8.135479326,0.0,False,218.7038156
UPdSe3,20,U1 Pd1 Se3,6.45456131,8.0767433,8.69590661,90.0,90.0,90.0,ortho,Pnma,8.00609,-6.492053684,-1.100248433,0.0,8.517519425,0.0,False,453.333567
UReB3,10,U1 Re1 B3,5.059883059,5.059880972,5.10709883,90.00011131,90.00000027,120.000067,hex_,P6_3/mmc,0.0055166,-9.309563073,-0.554023167,0.0,13.39353318,0.0,False,113.2362246
USi3Ir,5,U1 Si3 Ir1,5.728770592,5.728770592,5.728770592,137.2992147,137.2992147,61.97799715,tet,I4mm,2.7047761,-7.845220876,-0.56406122,0.0,9.997823976,0.0,False,85.4537301
UTlO3,5,U1 Tl1 O3,4.32518333,4.32517519,4.32544057,90.0,90.0,90.0,cubic,Pm-3m,1.0,-8.640130126,-2.938777098,0.0,10.06399019,0.2736,True,80.91677642
V3AsC,10,V3 As1 C1,3.13948863,5.247661431,7.651175,90.0,90.0,107.4054864,ortho,Cmcm,5e-07,-8.744546,-0.514444753,0.0,6.61991536,0.0,False,120.281155
V3GaN,10,V3 Ga1 N1,5.275322741,5.275322679,7.82878079,89.98759937,90.01240143,147.2457864,ortho,Cmcm,0.0001417,-8.473873032,-0.750254637,0.0,6.664861821,0.0,False,117.8741588
V3GeC,10,V3 Ge1 C1,3.06517977,5.200238961,7.8319491,90.0,90.0,107.1404652,ortho,Cmcm,1e-07,-8.69376434,-0.473082029,0.0,6.611178355,0.0,False,119.2939672
V3GeN,10,V3 Ge1 N1,5.232297542,5.232297542,7.746992116,89.97949104,90.02050896,146.3264657,ortho,Cmcm,1.4e-06,-8.835094886,-0.792490124,0.0,6.76307422,0.0,False,117.5948304
VAgO3,20,V1 Ag1 O3,9.169970889,9.169970889,8.00754944,75.7563749,75.7563749,22.45148104,mono,Cm,0.0,-7.109101783,-1.75495643,0.0,5.518261983,1.6283,False,248.9280852
VBO3,10,V1 B1 O3,5.522130316,5.522130651,5.52212972,49.5677236,49.56773593,49.56773785,trig,R-3c,4.0,-8.848075437,-2.726639266,0.0,4.063605841,1.8747,False,89.69635939
VCdO3,20,V1 Cd1 O3,3.58967774,5.26484532,14.28396924,90.0,90.0,90.0,ortho,Pnma,4.0000007,-7.049248041,-2.071688186,0.0,5.200232904,0.0,False,269.9541352
VCoB3,10,V1 Co1 B3,2.96576088,2.992652716,8.823090284,99.76409259,90.0,90.0,ortho,Cmcm,1e-07,-7.861651258,-0.610551638,0.0,6.123945772,0.0,False,77.17491168
VOF3,20,V1 O1 F3,5.06642859,5.574411463,9.3150732,91.01902994,90.0,90.0,mono,P2_1/c,0.0,-6.667337564,-2.714076768,0.0,3.129597025,3.6563,False,263.0380207
WNCl3,20,W1 N1 Cl3,8.124419915,8.263463251,9.193290534,97.92750325,107.3718253,110.7674543,tri,P-1,0.0,-16.64867062,-0.85789827,0.0,3.813683736,1.8151,False,529.8241638
WOF3,20,W1 O1 F3,5.54778935,4.97041236,9.16448092,90.0,90.0,90.0,ortho,P2_12_12_1,3.9980532,-7.340028386,-2.611922758,0.0,6.750600089,2.4411,True,252.7087354
Y3AlC,5,Y3 Al1 C1,4.88638886,4.88638886,4.88638886,90.0,90.0,90.0,cubic,Pm-3m,5.4e-06,-6.8927995,-0.392496336,0.0,4.351052929,0.0,False,116.6713104
Y3GaC,5,Y3 Ga1 C1,4.85428524,4.85428317,4.85429039,90.0,90.0,90.0,cubic,Pm-3m,6.3e-06,-6.809426208,-0.452619005,0.0,5.058421008,0.0,False,114.3868635
Y3InC,5,Y3 In1 C1,4.91830942,4.91830942,4.91830942,90.0,90.0,90.0,cubic,Pm-3m,7.8e-06,-6.807992866,-0.504970119,0.0,5.492844864,0.0,False,118.9727616
Y3PbC,5,Y3 Pb1 C1,4.9095349,4.9095349,4.9095349,90.0,90.0,90.0,cubic,Pm-3m,6.07e-05,-7.03818125,-0.544463837,0.0,6.818678134,0.0,False,118.3371362
Y3SnC,5,Y3 Sn1 C1,4.88691003,4.88691003,4.8869276,90.0,90.0,90.0,cubic,Pm-3m,1.52e-05,-7.185252328,-0.632149959,0.0,5.654759869,0.0,False,116.7090656
Y3TlC,5,Y3 Tl1 C1,4.90973176,4.90973176,4.90973176,90.0,90.0,90.0,cubic,Pm-3m,1.38e-05,-6.6874769,-0.461994478,0.0,6.778338013,0.0,False,118.3513718
YAl3Ni,20,Y1 Al3 Ni1,4.02710599,8.10956377,10.60833375,90.0,90.0,90.0,ortho,Pnma,8.8e-06,-5.295738009,-0.590546875,0.0,4.381682752,0.0,False,346.4477363
YBO3,30,Y1 B1 O3,6.54242982,6.54242982,8.82893208,90.0,90.0,120.0812712,ortho,Cmcm,0.0,-9.12873291,-3.522259653,0.0,4.500537513,5.1696,False,327.0097546
YBRh3,5,Y1 B1 Rh3,4.17882149,4.17882149,4.17882149,90.0,90.0,90.0,cubic,Pm-3m,0.0038927,-7.821756422,-0.765475046,0.0,9.294131987,0.0,False,72.97287522
YCrO3,20,Y1 Cr1 O3,5.24543586,5.5395879,7.54985526,89.99998068,90.00033939,89.99999979,ortho,Pnma,12.0000009,-9.392217048,-3.191012651,0.0,5.719311185,2.4831,False,219.3803195
YGa3Ru,15,Y1 Ga3 Ru1,6.3892472,6.3892472,6.3892472,90.0,90.0,90.0,cubic,Pm-3m,6e-07,-5.553980832,-0.58042441,0.0,7.623454426,0.0,False,260.8249146
YMnO3,30,Y1 Mn1 O3,6.137989787,6.137990098,11.44042308,90.00000087,89.99999817,119.9993851,hex_,P6_3cm,24.0000002,-9.130481213,-3.027483252,0.0,5.120548728,0.0,False,373.2740106
YMoN3,20,Y1 Mo1 N3,6.210994478,7.217226452,7.217225407,98.60305958,105.7173708,74.2826227,mono,C2/c,0.0,-9.56675606,-1.092841091,0.0,5.043707675,1.9089,False,298.7641609
YNiGe3,10,Y1 Ni1 Ge3,4.06618076,4.08783135,10.94461726,90.0,100.7055416,90.0,ortho,Cmmm,0.0,-5.802276762,-0.570614413,0.0,6.79101423,0.0,False,178.7535628
YNiO3,20,Y1 Ni1 O3,5.1637085,5.5062684,7.38760105,90.0,90.0,90.0,ortho,Pnma,3.9999993,-7.892334481,-2.465712242,0.0,6.185143049,0.0,False,210.0499241
YReN3,20,Y1 Re1 N3,5.3829449,5.59557393,7.68551211,90.0,90.0,90.0,ortho,Pnma,5.7e-06,-20.89996965,-0.877876111,0.0,9.099406619,0.0,False,231.4927444
YRh3C,5,Y1 Rh3 C1,4.15423783,4.15423783,4.15423783,90.0,90.0,90.0,cubic,Pm-3m,4e-07,-8.042441466,-0.476305346,0.0,9.487898233,0.0,False,71.69255675
YRhO3,20,Y1 Rh1 O3,5.22677739,5.75872435,7.58046239,90.0,90.0,90.0,ortho,Pnma,0.0,-8.290526322,-2.547069845,0.0,6.981031071,0.0001,True,228.1686601
YSeO3,40,Y1 Se1 O3,12.23956373,5.938537082,8.895160062,73.87316778,90.0,90.0,mono,P2_1/c,0.0,-7.469001202,-2.499224003,0.0,4.616952551,1.8369,False,621.1035251
YSi3Ir,5,Y1 Si3 Ir1,5.714082086,5.714082086,5.714082086,137.135692,137.135692,62.22933937,tet,I4mm,1e-07,-7.101415782,-0.776719828,0.0,7.112401625,0.0,False,85.30545895
YVO3,20,Y1 V1 O3,5.274392604,5.659848681,7.512776293,89.92957948,90.00384684,90.00254289,ortho,Pnma,7.9999996,-9.353054021,-3.265677904,0.0,5.563301518,0.0,False,224.2732113
YWN3,20,Y1 W1 N3,7.260720607,7.260720607,6.239089099,74.17254931,74.17254931,81.51557641,mono,C2/c,0.0,-21.03512514,-1.221595666,0.0,6.888864976,2.2798,False,303.4933381
ZnCO3,10,Zn1 C1 O3,5.660201746,5.660201979,5.660201416,48.55208898,48.55208757,48.55209382,trig,R-3c,0.0,-6.888936604,-1.822478181,0.0,4.456983342,3.5639,False,93.45393807
ZnNi3N,5,Zn1 Ni3 N1,3.72701343,3.72701343,3.72701343,90.0,90.0,90.0,cubic,Pm-3m,3.5e-06,-5.608231692,-0.220545413,0.0,8.195022677,0.0,False,51.77056123
ZnSeO3,40,Zn1 Se1 O3,6.21569912,7.21441768,12.01209078,90.0,90.0,90.0,ortho,Pbca,0.0,-5.422337314,-1.502429693,0.0,4.74416993,3.9227,False,538.6539781
Zr3AlN,10,Zr3 Al1 N1,3.36863777,6.016481369,8.99376521,90.0,90.0,106.2572745,ortho,Cmcm,9e-07,-17.93954996,-1.117505014,0.0,5.971793952,0.0,False,174.9911745
Zr3ZnN,10,Zr3 Zn1 N1,5.98226859,5.98226859,8.88907579,90.0,90.0,147.4366943,ortho,Cmcm,3.78e-05,-18.28788851,-1.030142711,0.0,6.848641575,0.0,False,171.2210848
ZrBRh3,5,Zr1 B1 Rh3,4.11326891,4.11326891,4.11325671,90.0,90.0,90.0,cubic,Pm-3m,1.36e-05,-21.30159559,-0.800629195,0.0,9.80095138,0.0,False,69.59211264
ZrCoH3,10,Zr1 Co1 H3,5.512663283,5.512663283,4.36913105,90.0,90.0,143.1796287,ortho,Cmcm,2.7128215,-5.667087547,-0.493764214,0.0,6.393162898,0.0,False,79.57346426
ZrNiH3,10,Zr1 Ni1 H3,3.508491179,4.29288545,5.52038354,90.0,108.5284559,90.0,ortho,Cmcm,0.0,-5.438467611,-0.535800286,0.0,6.442884518,0.0,False,78.8357668
ZrRu3C,5,Zr1 Ru3 C1,4.0755165,4.0755165,4.0755165,90.0,90.0,90.0,cubic,Pm-3m,4.1e-06,-9.44637781,-0.326463062,0.0,9.970170724,0.0,False,67.69365555
ZrSnS3,20,Zr1 Sn1 S3,3.74441614,9.44076215,14.08601102,90.0,90.0,90.0,ortho,Pnma,0.0,-6.391487313,-1.397017075,0.0,4.083517048,0.9944,False,497.9424921
CsEuBr3,20,Cs1 Eu1 Br3,8.16822568,8.39819241,11.78891638,90.0,90.0,90.0,ortho,Pnma,28.0000006,-5.513263593,-2.293727465,0.0,4.30858419,0.9374,True,808.6999869
CsEuCl3,20,Cs1 Eu1 Cl3,7.84786518,7.96416394,11.21136964,90.0,90.0,90.0,ortho,Pnma,28.0000005,-18.91738864,-2.501907845,0.0,3.708421784,0.0,True,700.7294922
CsFeCl3,10,Cs1 Fe1 Cl3,5.848597,7.500080164,7.50008,60.00000072,90.0,90.0,hex_,P6_3/mmc,8.0000004,-4.629992513,-1.647120451,0.0,3.439917916,0.0,False,284.9142252
CsGaS3,20,Cs1 Ga1 S3,6.467407468,7.65688873,12.64182486,90.0,90.0,107.6289284,mono,P2_1/c,0.0,-13.11770149,-0.98830594,0.0,3.326758497,2.6472,False,596.6264355
CsGaSe3,20,Cs1 Ga1 Se3,13.15157149,6.773097371,7.814851754,73.89929473,90.0,90.0,mono,P2_1/c,0.0,-16.83473256,-0.939400318,0.0,4.364842508,1.8736,False,668.817675
CsGeBr3,5,Cs1 Ge1 Br3,5.668240864,5.668240864,5.668241398,88.89687629,88.89687629,88.89686456,trig,R3m,0.0,-3.53509098,-1.448571664,0.0,4.062130258,0.7856,True,182.0146934
CsGeCl3,5,Cs1 Ge1 Cl3,5.461891124,5.461891124,5.461891073,89.54623145,89.54623145,89.54621701,trig,R3m,0.0,-3.92553261,-1.712059219,0.0,3.178939092,2.1535,False,162.9252755
CsGeI3,5,Cs1 Ge1 I3,8.706732698,6.128081833,6.065933978,92.17638737,135.8628261,86.96676119,trig,R3m,0.0,-3.090217248,-1.071458284,0.0,4.325382721,0.9905,True,225.0681168
CsHgCl3,45,Cs1 Hg1 Cl3,13.3873208,13.38700318,9.469666016,90.00155691,89.99357249,120.0001367,trig,P3_2,0.0,-2.905680173,-1.554877946,0.0,4.47258774,2.0,False,1469.744115
CsHgF3,5,Cs1 Hg1 F3,4.59544972,4.59544972,4.59544972,90.0,90.0,90.0,cubic,Pm-3m,0.0,-3.638687946,-2.250120334,0.0,6.681526474,0.7228,False,97.04743386
CsIO3,10,Cs1 I1 O3,4.669043714,6.601774174,6.61473721,90.0,90.0,89.99353567,ortho,Pmn2_1,0.0,-4.827901017,-1.374576067,0.0,5.013695697,3.0912,True,203.8924746
CsInBr3,10,Cs1 In1 Br3,8.145606524,8.145606524,8.145606524,60.0,60.0,60.0,cubic,Fm-3m,0.0,-3.261870632,-1.548122138,0.0,4.235853402,1.3782,False,382.1688494
CsInF3,10,Cs1 In1 F3,6.636698438,6.636698438,6.636698438,60.0,60.0,60.0,cubic,Fm-3m,0.0,-14.11761129,-2.707859579,0.0,4.895949053,3.0609,False,206.7003706
CsMgBr3,10,Cs1 Mg1 Br3,7.64834679,7.648346799,6.50988533,90.0,90.0,120.0000045,hex_,P6_3/mmc,0.0,-3.463099323,-1.975091575,0.0,3.997105991,4.0445,True,329.7912236
CsMgCl3,10,Cs1 Mg1 Cl3,7.29291267,7.292912737,6.18159097,90.0,90.0,119.9999997,hex_,P6_3/mmc,0.0,-3.930525774,-2.315563951,0.0,3.074264559,5.1261,True,284.7298034
CsMgH3,30,Cs1 Mg1 H3,6.11707186,8.52803537,9.95206766,90.0,90.0,90.0,ortho,Pmmn,0.0,-2.865838065,-0.322898375,0.0,3.075033588,2.9535,False,519.1655844
CsMgI3,10,Cs1 Mg1 I3,8.29721548,8.297214955,7.03483124,90.0,90.0,119.9999979,hex_,P6_3/mmc,0.0,-2.910670538,-1.490423142,0.0,4.259423944,3.152,False,419.4199024
CsMnBr3,10,Cs1 Mn1 Br3,7.65942696,7.659433697,6.5245266,90.0,90.0,120.0000287,hex_,P6_3/mmc,9.9999999,-4.563924619,-1.569607816,0.0,4.283503587,0.0,False,331.4915425
CsMnCl3,15,Cs1 Mn1 Cl3,10.06014829,10.06014743,10.06014844,42.59069864,42.5907019,42.59070069,trig,R-3m,15.0,-13.55107943,-1.903108246,0.0,3.470400823,1.4829,False,422.3155462
CsMnF3,30,Cs1 Mn1 F3,6.21865967,6.218659678,15.0791449,90.00000275,89.99999592,119.9996263,hex_,P6_3/mmc,30.0000033,-6.1501574,-2.991121137,0.0,4.830341797,3.4556,False,505.0130044
CsNO3,45,Cs1 N1 O3,10.84690041,10.84480427,7.680832796,89.99256164,89.99247834,119.9923396,trig,P3_1,0.0,-6.232582091,-1.416404115,0.0,3.722431332,3.2965,False,782.5278762
CsNaF3,20,Cs1 Na1 F3,4.158445,7.002554,13.573251,90.0,90.0,90.0,ortho,Pnma,4.0011304,-4.001478365,-2.406501005,0.0,3.577617621,0.0295,False,395.2494813
CsNbO3,40,Cs1 Nb1 O3,16.04611897,5.169600477,9.291497475,86.83904432,90.0,90.0,mono,P2_1/c,0.0,-8.002681929,-2.833898494,0.0,4.726470912,3.3517,False,769.5758858
CsNiBr3,10,Cs1 Ni1 Br3,7.556074976,7.556077593,6.27613375,89.99994798,90.0000508,119.999737,hex_,P6_3/mmc,4.0000001,-3.615885824,-1.297944743,0.0,4.61586223,0.0,False,310.3249117
CsNiCl3,10,Cs1 Ni1 Cl3,7.20877398,7.208780297,5.94015344,90.00000375,90.00001846,120.0000326,hex_,P6_3/mmc,3.9999997,-12.64128161,-1.533633926,0.0,3.701541106,0.8049,False,267.3322484
CsNiF3,10,Cs1 Ni1 F3,6.2008944,6.200899655,5.19003829,90.0,90.0,120.0000268,hex_,P6_3/mmc,4.0000002,-11.85890037,-2.568523299,0.0,4.777049346,5.3618,False,172.8264127
CsPO3,20,Cs1 P1 O3,4.30527062,6.812608573,13.8045881,66.40094052,90.0,90.0,mono,P2_1/c,0.0,-6.907449082,-2.675831949,0.0,3.793026488,5.4223,True,371.0290178
CsPS3,10,Cs1 P1 S3,7.245292509,7.530680202,7.53068007,74.19901481,61.24588756,61.2458846,ortho,Immm,0.0,-12.4755619,-0.834306273,0.0,2.738880732,1.9062,False,315.3575747
CsPaO3,5,Cs1 Pa1 O3,4.42986213,4.42986213,4.42986213,90.0,90.0,90.0,cubic,Pm-3m,0.0,-8.516854444,-3.459472581,0.0,7.868862178,2.973,False,86.9301902
CsPbBr3,20,Cs1 Pb1 Br3,4.60907397,9.84551805,16.95083421,90.0,90.0,90.0,ortho,Pnma,0.0,-3.540662441,-1.636219281,0.0,5.006763123,2.8808,False,769.2071757
CsPbCl3,10,Cs1 Pb1 Cl3,5.75527897,11.13722107,7.875528607,45.00235759,90.0,90.0,tet,P4/mbm,0.0,-3.920044919,-1.888647685,0.0,4.153748274,2.7365,True,356.9651387
CsPbF3,10,Cs1 Pb1 F3,6.66475513,6.664755298,6.664756089,62.28894391,62.28893761,62.28893792,trig,R3c,0.0,-4.854054985,-2.784892366,0.0,5.993799341,3.3374,False,220.0277735
CsPbI3,20,Cs1 Pb1 I3,4.84714164,10.65044663,18.03119927,90.0,90.0,90.0,ortho,Pnma,0.0,-3.101759242,-1.265076435,0.0,5.143480377,2.5181,False,930.8466583
CsSO3,20,Cs1 S1 O3,6.33106207,6.33106359,11.60598051,90.0,90.0,120.0000026,hex_,P6_3mc,0.0,-6.049899335,-2.073704994,0.0,3.511228284,5.1115,True,402.8707197
CsScI3,10,Cs1 Sc1 I3,6.731541691,8.503741291,8.498150621,120.0308927,90.01295808,89.9984006,hex_,P6_3/mmc,5.75e-05,-3.907052393,-1.546405179,0.0,4.404697294,0.0,False,421.1573108
CsSiTe3,20,Cs1 Si1 Te3,8.285141902,8.285141902,13.56096589,84.53407253,84.53407253,117.8988932,mono,Cc,0.0,-22.60731803,-0.582389612,0.0,4.467287673,1.2613,True,808.5318751
CsSnBr3,20,Cs1 Sn1 Br3,8.1224956,8.22973192,11.71381062,90.0,90.0,90.0,ortho,Pnma,0.0,-3.537762078,-1.573933961,0.0,4.167798819,0.9682,True,783.0209315
CsSnCl3,20,Cs1 Sn1 Cl3,5.799722939,7.49022164,16.31739822,90.0,93.18164942,90.0,mono,P2_1/c,0.0,-15.23997397,-1.579432963,0.0,3.359527765,2.9154,True,707.7549034
CsSnF3,20,Cs1 Sn1 F3,6.669265,4.961346,15.32983109,72.22332109,90.0,90.0,mono,P2_1/c,0.0025162,-4.91097603,-2.782428454,0.0,4.243776148,3.7852,False,483.0227061
CsSnI3,5,Cs1 Sn1 I3,6.286228,6.286228,6.286228,90.0,90.0,90.0,cubic,Pm-3m,0.0044224,-3.079453774,-1.18338601,0.0,4.226897499,0.45,True,248.4107501
CsSnS3,10,Cs1 Sn1 S3,6.806630875,7.512150706,7.708016994,99.13702219,114.4060213,107.952534,tri,P-1,0.0,-15.63081965,-0.840742537,0.0,3.584270415,1.6557,False,322.2707978
CsSrBr3,20,Cs1 Sr1 Br3,8.21232242,8.50669965,11.79237493,90.0,90.0,90.0,ortho,Pnma,0.0,-3.849744316,-2.349344953,0.0,3.710758369,4.5563,False,823.8124855
CsSrCl3,20,Cs1 Sr1 Cl3,7.87290647,8.03044119,11.26828583,90.0,90.0,90.0,ortho,Pnma,0.0,-14.28292849,-2.542492029,0.0,3.047691474,5.3123,False,712.4138479
CsSrI3,10,Cs1 Sr1 I3,8.487576926,8.487576926,12.32933082,90.0,90.0,146.5816981,ortho,Cmcm,0.0,-3.325436342,-1.892797331,0.0,4.081941154,3.959,False,489.1695303
CsTaS3,10,Cs1 Ta1 S3,7.427573231,7.427573231,6.03641524,90.0,90.0,120.0000127,hex_,P6_3mc,0.0,-6.472226546,-1.436079473,0.0,4.721832479,0.5151,True,288.4055194
CsTaSe3,20,Cs1 Ta1 Se3,6.20693143,7.68985284,13.33275792,90.0,90.0,90.0,ortho,Pnma,0.0,-24.50238634,-1.177242754,0.0,5.748247784,0.0868,True,636.3777258
CsTaTe3,10,Cs1 Ta1 Te3,6.362924061,8.25951784,8.259457974,120.0075044,89.99997071,89.99872314,hex_,P6_3mc,1.09e-05,-5.283310629,-0.84419576,0.0,6.155099004,0.0,False,375.8899971
CsTeSe3,20,Cs1 Te1 Se3,6.867251,7.711609,13.81637211,83.85481819,90.0,90.0,mono,P2_1/c,0.0003308,-3.657964072,-0.752010182,0.0,4.541328801,0.9842,False,727.4769216
CsTiBr3,10,Cs1 Ti1 Br3,7.6265278,7.626528711,6.53842333,90.00003531,90.00001716,119.9999323,hex_,P6_3/mmc,4.0000001,-4.453842156,-1.712830008,0.0,4.240053185,0.0,False,329.3500476
CsTiCl3,10,Cs1 Ti1 Cl3,7.40115554,7.401156238,5.92382661,90.0,90.0,119.9999924,hex_,P6_3/mmc,3.9999268,-13.24685952,-1.948003869,0.0,3.393342945,0.0,False,281.0166852
CsTlF3,10,Cs1 Tl1 F3,6.759902998,6.759902998,6.759902998,60.0,60.0,60.0,cubic,Fm-3m,0.0,-19.952638,-2.42274345,0.0,5.994898167,2.1858,False,218.4270369
CsVBr3,10,Cs1 V1 Br3,7.62723314,7.62723262,6.47467011,90.0,90.0,119.9999977,hex_,P6_3/mmc,6.0000001,-4.563302533,-1.584607574,0.0,4.312316786,0.6528,False,326.1987565
CsVCl3,10,Cs1 V1 Cl3,7.23788792,7.23789468,6.19426413,90.0,90.0,120.0000255,hex_,P6_3/mmc,6.0000008,-13.44505887,-1.915839475,0.0,3.429580927,0.4835,False,281.0246096
CsVI3,10,Cs1 V1 I3,8.23111885,8.231118579,6.9510579,90.0,90.0,119.9862189,hex_,P6_3/mmc,6.000001,-4.053066899,-1.142132292,0.0,4.596528052,0.5973,False,407.9054999
CsVO3,20,Cs1 V1 O3,5.45086244,5.79445238,12.27054304,90.0,90.0,90.0,ortho,Pbcm,0.0,-7.382710907,-2.417407265,0.0,3.973431261,3.1105,False,387.5621918
CuAgF3,10,Cu1 Ag1 F3,5.513262492,5.513262492,5.513262793,60.9361972,60.9361972,60.93618287,trig,R-3c,1.9999983,-9.856441633,-1.541714279,0.0,6.269244001,0.0,False,120.9979218
CuNi3N,5,Cu1 Ni3 N1,3.70207231,3.70208553,3.70222455,90.0,90.0,90.0,cubic,Pm-3m,1.0067557,-11.21189493,-0.027755304,0.0,8.300429842,0.0,False,50.74042514
CuPS3,20,Cu1 P1 S3,5.31083413,5.31083413,14.90440863,90.0,90.0,90.0,tet,P4_2/mnm,0.0,-9.091445678,-0.300671766,0.0,3.013374959,1.1555,False,420.3782367
CuSe3Br,20,Cu1 Se3 Br1,4.80714032,7.58594412,14.37169294,90.0,90.0,90.0,ortho,Pmna,0.0,-3.780614001,-0.535836473,0.0,4.820202726,1.0299,False,524.088184
Dy3AlC,5,Dy3 Al1 C1,4.8703325,4.8703325,4.8703325,90.0,90.0,90.0,cubic,Pm-3m,4e-07,-5.741221932,-0.37534835,0.0,7.567723145,0.0,False,115.5249622
Dy3AlN,5,Dy3 Al1 N1,4.75093043,4.75093043,4.75093043,90.0,90.0,90.0,cubic,Pm-3m,3.04e-05,-23.44896098,-1.087709249,0.0,8.183675708,0.0,False,107.2348658
Dy3InC,5,Dy3 In1 C1,4.9031569,4.9031569,4.9031569,90.0,90.0,90.0,cubic,Pm-3m,2e-06,-5.654029088,-0.485435924,0.0,8.654112371,0.0,False,117.876538
Dy3InN,5,Dy3 In1 N1,4.79206634,4.79206634,4.79206634,90.0,90.0,90.0,cubic,Pm-3m,2.89e-05,-26.73381282,-1.203262677,0.0,9.3001554,0.0,False,110.0445313
Dy3PbC,5,Dy3 Pb1 C1,4.89301389,4.89301389,4.89301492,90.0,90.0,90.0,cubic,Pm-3m,9.5e-06,-5.89106458,-0.53177675,0.0,10.01754558,0.0,False,117.1465323