formula,sites,composition,a_edge (angstrom),b_edge (angstrom),c_edge (angstrom),alpha_ang (deg),beta_ang (deg),gamma_ang (deg),crystal_system,space_group,total_magnetisation (bohr),energy_per_atom (eV/atom),formation_energy (eV/atom),energy_above_hull (eV/atom),density (g/cc),band_gap (eV),direct_bandgap,volume (cubic-angstrom)
AcAlO3,5,Ac1 Al1 O3,3.85863387,3.85863387,3.85863387,90.0,90.0,90.0,cubic,Pm-3m,0.0,-8.232146192,-3.690019421,0.0,8.728230082,4.1024,True,57.45141324
AcCrO3,5,Ac1 Cr1 O3,3.9442869,3.94430226,3.9442715,90.0,90.0,90.0,cubic,Pm-3m,2.9999997,-8.862593228,-3.13897213,0.0,8.848788047,2.0031,False,61.36284504
AcCuO3,5,Ac1 Cu1 O3,3.91333125,3.91333125,3.91333125,90.0,90.0,90.0,cubic,Pm-3m,1.6e-06,-7.035745362,-2.422892424,0.0,9.380470938,0.0,False,59.92938666
AcFeO3,5,Ac1 Fe1 O3,3.95356962,3.9535675,3.95358451,90.00009246,90.0,90.0,cubic,Pm-3m,4.2542759,-8.258555312,-2.771539466,0.0,8.889999466,0.9888,False,61.79731063
AcGaO3,5,Ac1 Ga1 O3,3.94626209,3.94626209,3.94626209,90.0,90.0,90.0,cubic,Pm-3m,0.0,-7.461883426,-3.063252617,0.0,9.314495003,2.8959,False,61.45507829
AcMnO3,5,Ac1 Mn1 O3,3.96302168,3.96302168,3.96302168,90.0,90.0,90.0,cubic,Pm-3m,3.9999934,-8.599044686,-2.973630023,0.0,8.802373253,0.0,False,62.24139883
AcNiO3,5,Ac1 Ni1 O3,3.87883955,3.87883649,3.87881202,90.0,90.0,90.0,cubic,Pm-3m,2.6e-06,-7.404515516,-2.455476575,0.0,9.494942767,0.0,False,58.3582178
AcTiO3,5,Ac1 Ti1 O3,3.99582001,3.99582001,3.99582001,90.0,90.0,90.0,cubic,Pm-3m,0.1609683,-8.979745746,-3.607635738,0.0,8.403352518,0.0,False,63.79957007
AcVO3,5,Ac1 V1 O3,3.96789433,3.96789746,3.96789433,90.0,90.0,90.0,cubic,Pm-3m,2.0000001,-8.750861914,-3.141069096,0.0,8.66374623,0.0,False,62.47131331
AgAsO3,10,Ag1 As1 O3,6.389075483,6.389075483,6.389075851,45.13452662,45.13452672,45.13451435,trig,R-3,0.0,-5.741099904,-1.269711259,0.0,6.425733028,0.2921,True,119.2805516
AgIO3,40,Ag1 I1 O3,5.66928603,7.23941537,15.25444032,90.0,90.0,90.0,ortho,Pca2_1,0.0,-4.555235327,-0.713068665,0.0,5.999922076,2.4375,False,626.0775665
AgNO3,10,Ag1 N1 O3,6.201768483,6.201684965,6.201686928,49.08953044,49.08691654,49.08856255,trig,R3c,0.0,-5.885683233,-0.680663545,0.0,4.509524595,1.8539,False,125.104504
AgPO3,40,Ag1 P1 O3,5.97752081,7.317044275,13.59925276,61.66666124,90.0,90.0,mono,P2_1/c,0.0,-6.578507002,-1.958048158,0.0,4.740841827,2.0232,False,523.5448041
AgSbO3,20,Ag1 Sb1 O3,7.270079791,7.270079791,7.270079791,60.0,60.0,60.0,cubic,Fd-3m,0.0,-5.807639057,-1.44447467,0.0,6.786835394,0.0946,False,271.7080679
AgTeO3,40,Ag1 Te1 O3,6.92440761,6.518629494,13.29551785,88.99666929,90.0,90.0,mono,P2_1/c,0.0,-5.312450585,-1.146425267,0.0,6.275713149,1.5732,False,600.036388
Al3BC,10,Al3 B1 C1,3.481176444,3.481176444,11.46837206,90.0,90.0,119.9999917,hex_,P6_3/mmc,0.0,-5.52696833,-0.098011379,0.0,2.863195326,0.453,False,120.3606472
AlFe3C,5,Al1 Fe3 C1,3.78948866,3.78990736,3.78993006,90.0,90.0,90.0,cubic,Pm-3m,5.8869668,-7.837073892,-0.160212901,0.0,6.300659849,0.0,False,54.43025909
AlFe3H,5,Al1 Fe3 H1,3.69954721,3.69954826,3.69956512,90.0,90.0,90.0,cubic,Pm-3m,7.321186,-6.715165902,-0.205004722,0.0,6.412129532,0.0,False,50.63466569
AlInS3,30,Al1 In1 S3,6.771139126,6.770227804,17.96964451,89.9998925,90.00029741,120.0020705,hex_,P6_1,0.0,-11.68505014,-1.001912953,0.0,3.323848829,2.0813,False,713.3884529
AlInSe3,30,Al1 In1 Se3,7.074358422,7.068211916,18.84396187,89.99924068,90.00046465,120.0581709,hex_,P6_1,0.0,-15.31299494,-0.863921058,0.0,4.62623389,1.6333,True,815.5387503
AlSiTe3,10,Al1 Si1 Te3,6.88931547,6.88931598,7.41726321,90.0,90.0,119.9999905,trig,P-31m,0.0,-18.68388949,-0.332382316,0.0,4.769741105,1.2504,False,304.8783184
AsCl3O,20,As1 Cl3 O1,6.35824603,8.270203542,10.38806172,113.0335866,90.0,90.0,mono,P2_1/c,0.0,-4.188813655,-1.156074951,0.0,2.606670691,2.5284,False,502.6966363
Ba3BiN,10,Ba3 Bi1 N1,7.72798537,7.727984757,6.77933811,90.0,90.0,119.9999936,hex_,P6_3/mmc,0.0,-4.445894738,-0.848847363,0.0,6.014236453,0.6466,True,350.6311547
Ba3GeO,20,Ba3 Ge1 O1,7.57259814,7.72347163,10.83356778,90.0,90.0,90.0,ortho,Pnma,0.0,-4.505382822,-1.439800086,0.0,5.24793758,0.153,False,633.6201368
Ba3NaN,10,Ba3 Na1 N1,8.543396245,8.543394286,6.98639627,90.00001887,89.99999685,120.0000188,hex_,P6_3/mmc,0.0054364,-3.419354647,-0.331969978,0.0,3.376438755,0.0,False,441.6159639
Ba3PbO,5,Ba3 Pb1 O1,5.52184574,5.52184574,5.52184574,90.0,90.0,90.0,cubic,Pm-3m,2.5e-06,-4.375894106,-1.492387527,0.0,6.264600434,0.0,False,168.3653857
Ba3SbN,10,Ba3 Sb1 N1,7.62952326,7.629524376,6.73699565,90.0,90.0,119.9999952,hex_,P6_3/mmc,0.0,-4.570453707,-0.925612946,0.0,5.356336708,0.4555,True,339.6188492
Ba3SiO,20,Ba3 Si1 O1,7.57657891,7.6982159,10.80878583,90.0,90.0,90.0,ortho,Pnma,0.0,-4.542833479,-1.316792708,0.0,4.805034838,0.4217,False,630.4347581
Ba3SnO,5,Ba3 Sn1 O1,5.50211613,5.50211613,5.50211613,90.0,90.0,90.0,cubic,Pm-3m,1.4e-06,-4.474396678,-1.531505142,0.0,5.45006005,0.0,False,166.5671127
BaBiO3,20,Ba1 Bi1 O3,6.17435169,6.217179422,8.71828688,90.25395528,90.0,90.0,mono,P2_1/c,0.0,-6.364005464,-2.233427011,0.0,7.825829473,0.0,False,334.6660467
BaBiSe3,40,Ba1 Bi1 Se3,4.47920984,16.37637289,17.09756824,90.0,90.0,90.0,ortho,P2_12_12_1,0.0,-4.576548427,-1.31719969,0.0,6.177229599,0.9944,False,1254.161524
BaCO3,20,Ba1 C1 O3,5.35922589,6.41636356,8.97996254,90.0,90.0,90.0,ortho,Pnma,0.0,-7.881547381,-2.683242692,0.0,4.24472577,4.3974,False,308.7916524
BaCeO3,20,Ba1 Ce1 O3,6.25973589,6.24763379,8.81258554,90.0,90.0,90.0,ortho,Pnma,0.0,-8.129798318,-3.589836753,0.0,6.272009405,2.2207,True,344.6473317
BaCoO3,20,Ba1 Co1 O3,5.683698159,5.68449177,9.415556622,90.21787659,90.16958531,60.00059219,hex_,P6_3/mmc,3.9988418,-6.827112947,-2.047858012,0.0,6.15829064,0.0,False,263.4501234
BaFeO3,30,Ba1 Fe1 O3,5.644466396,5.644466656,13.69047446,89.99997685,90.00002746,119.999655,hex_,P6_3/mmc,20.0075123,-7.196856963,-2.15028113,0.0,6.361031509,0.0,False,377.7430169
BaGe3Ir,5,Ba1 Ge3 Ir1,6.060256348,6.060256348,6.060256348,135.6490947,135.6490947,64.52330937,tet,I4mm,0.0,-5.450191656,-0.524893119,0.0,8.476012437,0.0,False,107.2538964
BaGe3Pd,5,Ba1 Ge3 Pd1,6.12048028,6.12048028,6.12048028,135.8851656,135.8851656,64.15792097,tet,I4mm,0.0,-4.76390768,-0.570319617,0.0,6.995413498,0.0,False,109.5883881
BaGe3Pt,5,Ba1 Ge3 Pt1,4.599647445,4.599647233,6.088497611,112.1985307,112.1985284,90.04224809,tet,I4mm,0.0,-5.004205486,-0.632367121,0.0,8.394102908,0.0,False,108.8676342
BaGe3Rh,5,Ba1 Ge3 Rh1,6.07321281,6.07321281,6.07321281,135.9954027,135.9954027,63.98744281,tet,I4mm,0.0,-5.193392076,-0.562918801,0.0,7.132739648,0.0,False,106.6602964
BaGeAu3,5,Ba1 Ge1 Au3,6.137866082,6.137866082,6.137866082,133.9546714,133.9546714,67.15881598,tet,I4mm,0.0,-3.78469072,-0.511960961,0.0,11.28299789,0.0,False,117.8649919
BaGeO3,20,Ba1 Ge1 O3,4.64225534,5.75213457,12.94668869,90.0,90.0,90.0,ortho,P2_12_12_1,0.0,-6.973178374,-2.696001212,0.0,4.956252732,3.5519,False,345.7138411
BaGeS3,40,Ba1 Ge1 S3,5.8041549,13.48955987,15.55618473,64.57360247,90.0,90.0,mono,P2_1/c,0.0,-5.224138663,-1.432722363,0.0,3.697401324,2.4497,False,1100.002769
BaHfO3,5,Ba1 Hf1 O3,4.170042393,4.169091207,4.170376634,89.9994643,89.99434031,89.99884047,cubic,Pm-3m,0.0,-9.130724048,-3.786714651,0.0,8.332451499,3.5394,False,72.50319462
BaHfS3,20,Ba1 Hf1 S3,7.01916792,7.04466639,9.97598706,90.0,90.0,90.0,ortho,Pnma,0.0,-6.99744922,-2.139200686,0.0,5.547751677,1.2524,True,493.2895788
BaLiH3,5,Ba1 Li1 H3,4.01142218,4.01142218,4.01142218,90.0,90.0,90.0,cubic,Pm-3m,0.0,-3.412171436,-0.609492011,0.0,3.789069851,2.2146,False,64.54983172
BaMgIn3,5,Ba1 Mg1 In3,7.182609243,7.182609243,7.182609243,140.5829503,140.5829503,56.9692323,tet,I-4m2,0.0,-2.705268706,-0.339875469,0.0,5.672033287,0.0,False,148.1612557
BaMnO3,15,Ba1 Mn1 O3,7.737605495,7.737605495,7.737604856,43.16578741,43.16578741,43.16578577,trig,R-3m,8.9998148,-7.674919524,-2.489944874,0.0,6.088581272,0.8953,False,196.5810195
BaMoO3,5,Ba1 Mo1 O3,4.04839936,4.04839936,4.04839936,90.0,90.0,90.0,cubic,Pm-3m,3.4e-06,-8.038497708,-2.516796095,0.0,7.039066313,0.0,False,66.35139263
BaNbO3,5,Ba1 Nb1 O3,4.13357283,4.13357283,4.13357283,90.0,90.0,90.0,cubic,Pm-3m,8e-07,-8.55158716,-3.178754561,0.0,6.541520966,0.0,False,70.62797942
BaNiO3,10,Ba1 Ni1 O3,5.67658447,5.676584232,4.78201573,90.0,90.0,120.0000014,hex_,P6_3/mmc,0.0,-6.3286214,-1.820022473,0.0,6.072761251,1.4692,False,133.4491516
BaNiSn3,5,Ba1 Ni1 Sn3,6.481813811,6.481813811,6.481813811,136.1742433,136.1742433,63.71106718,tet,I4mm,0.0,-4.42089505,-0.475329613,0.0,7.115072162,0.0,False,128.862686
BaNpO3,5,Ba1 Np1 O3,4.40770786,4.40768834,4.40770786,90.0,90.0,90.0,cubic,Pm-3m,3.0000002,-9.31906119,-3.376933663,0.0,8.189541935,0.0,False,85.63207796
BaPS3,20,Ba1 P1 S3,7.83000695,6.805428907,11.99680662,56.64821983,90.0,90.0,mono,P2_1/c,0.0,-5.423391565,-1.473486131,0.0,3.290003629,3.1164,True,533.9879165
BaPSe3,20,Ba1 P1 Se3,7.109938964,8.00824586,10.44369604,90.0,90.94345991,90.0,mono,P2_1/c,0.0,-4.858490397,-1.294053818,0.0,4.526466315,2.1651,False,594.5640042
BaPaO3,5,Ba1 Pa1 O3,4.49381653,4.49385515,4.49383447,90.0,90.0,90.0,cubic,Pm-3m,1.0003132,-8.825384122,-3.563953095,0.0,7.618469716,0.0,False,90.75101234
BaPbO3,10,Ba1 Pb1 O3,6.076817498,6.076817498,6.076817498,120.1797167,119.3208594,90.43465787,ortho,Imma,0.0,-6.203951158,-2.108850153,0.0,8.185414705,0.1993,False,159.2597205
BaPuO3,20,Ba1 Pu1 O3,6.21830855,6.22055537,8.74807929,90.0,90.0,90.0,ortho,Pnma,15.9999996,-9.644219982,-3.344061895,0.0,8.427161775,0.0,False,338.387365
BaReN3,20,Ba1 Re1 N3,7.989707039,7.989707039,6.143923285,81.54328598,81.54328598,91.19638265,mono,C2/c,0.0,-8.574175465,-0.697790989,0.0,6.333724809,1.7855,False,383.3553761
BaRuO3,20,Ba1 Ru1 O3,5.781548756,5.781549011,9.63265614,90.00001575,89.99998765,119.9999587,hex_,P6_3/mmc,8.0185275,-7.397607172,-2.190155073,0.0,6.821965991,0.0,False,278.8465488
BaSbTe3,40,Ba1 Sb1 Te3,4.68859283,17.3106177,18.2360371,90.0,90.0,90.0,ortho,P2_12_12_1,0.0,-4.136793027,-1.041214255,0.0,5.761188872,0.6207,False,1480.081231
BaSeO3,10,Ba1 Se1 O3,4.727316927,5.68404761,6.881633589,90.0,107.0762024,90.0,mono,P2_1/m,0.0,-6.369833006,-2.318079119,0.0,4.965564886,3.8866,True,176.7597079
BaSi3Pd,5,Ba1 Si3 Pd1,4.43020383,4.43020383,6.001889522,111.6581145,111.6581145,90.0,tet,I4mm,0.0,-5.111159912,-0.436197744,0.0,5.420660922,0.0,False,100.4790068
BaSiO3,30,Ba1 Si1 O3,7.519856188,7.519856188,11.3869284,71.26487481,71.26487481,60.14571229,mono,C2/c,0.0,-7.841648403,-3.404013206,0.0,4.100241203,4.6708,False,518.5696943
BaSn3Au,5,Ba1 Sn3 Au1,6.653871796,6.653871796,6.653871796,135.2071975,135.2071975,65.20843136,tet,I4mm,0.0,-3.946880616,-0.502566115,0.0,7.955701719,0.0,False,144.1073772
BaSn3Pd,5,Ba1 Sn3 Pd1,4.936751667,4.936751817,6.628744194,111.862131,111.8621282,90.00001054,tet,I4mm,0.0,-4.472409248,-0.646894785,0.0,7.253140735,0.0,False,137.3362561
BaSn3Pt,5,Ba1 Sn3 Pt1,4.933648963,4.933649025,6.608819911,111.9708301,111.9708375,89.9763585,tet,I4mm,0.0,-4.684949584,-0.681184819,0.0,8.37535818,0.0,False,136.5134726
BaSnO3,5,Ba1 Sn1 O3,4.14346542,4.14346542,4.14346542,90.0,90.0,90.0,cubic,Pm-3m,0.0,-6.741954234,-2.587468272,0.0,7.097114448,0.3724,False,71.13628093
BaSrBi3,20,Ba1 Sr1 Bi3,6.84803675,7.01213743,15.74091666,90.0,90.0,90.0,ortho,Pnna,9e-07,-3.794816241,-0.738515049,0.0,7.485919806,0.0,False,755.8689771
BaTaS3,10,Ba1 Ta1 S3,6.94578854,6.945788839,5.70673887,90.0,90.0,119.9999935,hex_,P6_3/mmc,2e-07,-7.022248309,-1.782052072,0.0,5.773115877,0.0,False,238.4304914
BaTcO3,30,Ba1 Tc1 O3,5.79887858,5.798878602,13.95118365,89.99995685,90.00004413,119.9999466,hex_,P6_3/mmc,2.0395058,-7.891064421,-2.466365041,0.0,6.947932626,0.0,False,406.2842188
BaTeO3,10,Ba1 Te1 O3,4.650439182,5.95910517,7.120932753,90.0,106.4470613,90.0,mono,P2_1/m,0.0,-6.338290204,-2.357057434,0.0,5.491008348,2.7149,False,189.2637879
BaTeS3,20,Ba1 Te1 S3,6.98612374,7.56500176,11.07567138,90.0,90.0,90.0,ortho,Pnma,0.0,-4.684428415,-1.188956507,0.0,4.097770835,1.9088,False,585.3496576
BaThO3,20,Ba1 Th1 O3,6.3660955,6.4142298,9.00638526,90.0,90.0,90.0,ortho,Pnma,0.0,-8.610439182,-3.775095941,0.0,7.537982411,4.047,True,367.7631283
BaTiO3,5,Ba1 Ti1 O3,3.98333387,4.057342645,4.057342358,90.25451682,90.0,90.0,ortho,Amm2,0.0,-8.423947972,-3.492277978,0.0,5.905237275,2.293,False,65.57310742
BaTiSe3,10,Ba1 Ti1 Se3,7.108258999,7.108258999,6.05122586,90.0,90.0,120.0,hex_,P6_3/mmc,0.001179,-5.830655041,-1.770214763,0.0,5.293796121,0.0,False,264.7893308
BaUO3,20,Ba1 U1 O3,6.239579931,6.264552011,8.80358892,89.99981005,89.99955897,89.99814566,ortho,Pnma,0.0307809,-9.097313798,-3.486460205,0.0,8.171612092,0.0,False,344.1162066
BaUS3,20,Ba1 U1 S3,7.2908132,7.52588778,10.41371308,90.0,90.0,90.0,ortho,Pnma,7.9999999,-7.146524549,-2.021431819,0.0,5.481486627,0.0,False,571.398791
BaVS3,20,Ba1 V1 S3,6.809994142,9.003470373,8.973673506,80.16413058,67.87009544,67.60089509,ortho,Cmc2_1,4.0000022,-6.352549342,-1.668957399,0.0,4.011724019,0.0,False,470.9823034
BaWN3,20,Ba1 W1 N3,5.75731796,7.644877338,10.27788765,48.75827415,90.0,90.0,mono,P2_1/c,0.0,-8.800342307,-0.821954625,0.0,7.091932459,1.505,False,340.1534752
BaZnIn3,5,Ba1 Zn1 In3,6.928847466,6.928847466,6.928847466,139.7447072,139.7447072,58.24113005,tet,I4mm,0.0,-2.636065042,-0.344817086,0.0,6.601326276,0.0,False,137.6436089
BaZrO3,10,Ba1 Zr1 O3,5.95393041,5.95667351,5.95393041,119.9847733,90.0,119.9847733,tet,I4/mcm,0.0,-8.701352408,-3.639240691,0.0,6.148305056,3.1163,False,149.381251
BaZrS3,20,Ba1 Zr1 S3,7.0635613,7.13448881,10.04182376,90.0,90.0,90.0,ortho,Pnma,0.0,-6.683471457,-2.107120602,0.0,4.262395304,0.99,True,506.0566947
BaZrSe3,20,Ba1 Zr1 Se3,4.0649102,9.14687945,15.11012795,90.0,90.0,90.0,ortho,Pnma,0.0,-6.111344957,-1.920462956,0.0,5.502655723,0.3726,True,561.8133478
BiBO3,20,Bi1 B1 O3,5.0360157,6.585006132,8.30720892,109.7120783,90.0,90.0,mono,P2_1/c,0.0,-7.373128569,-2.29046675,0.0,6.858520762,3.0096,False,259.3416907
BrNO3,20,Br1 N1 O3,4.11367551,6.77359703,11.57273897,90.0,90.0,90.0,ortho,P2_12_12_1,0.0,-5.499931956,-0.536110497,0.0,2.923029359,2.208,False,322.4671988
Ca3AsN,20,Ca3 As1 N1,6.72350532,6.71622716,9.52706106,90.0,90.0,90.0,ortho,Pnma,0.0,-10.28257336,-1.29234081,0.0,3.229329943,0.894,True,430.2095811
Ca3BiN,5,Ca3 Bi1 N1,4.90035347,4.90035347,4.90035347,90.0,90.0,90.0,cubic,Pm-3m,0.0,-18.95342622,-1.204245117,0.0,4.843294237,0.3687,True,117.6744623
Ca3BiP,5,Ca3 Bi1 P1,5.41746624,5.41746624,5.41746624,90.0,90.0,90.0,cubic,Pm-3m,0.0,-18.84562672,-1.121780491,0.0,3.761749672,0.0759,True,158.9968941
Ca3GeN,5,Ca3 Ge1 N1,4.80418381,4.80418176,4.80418381,90.0,90.0,90.0,cubic,Pm-3m,0.4475857,-9.684532318,-0.861410448,0.0,3.098206879,0.0,False,110.8813898
Ca3GeO,10,Ca3 Ge1 O1,6.66971808,6.66971808,6.66971808,120.089317,119.7906,90.1042207,ortho,Imma,0.0,-4.825235687,-1.707677987,0.0,3.303431451,0.1402,True,209.989186
Ca3PN,5,Ca3 P1 N1,4.71165792,4.71165792,4.71165792,90.0,90.0,90.0,cubic,Pm-3m,0.0,-9.054565102,-1.205423485,0.0,2.622864785,0.8056,True,104.5974882
Ca3PbO,5,Ca3 Pb1 O1,4.84593119,4.84593119,4.84593119,90.0,90.0,90.0,cubic,Pm-3m,8e-07,-4.62479418,-1.689312637,0.0,5.011409566,0.0,False,113.7972401
Ca3SbN,5,Ca3 Sb1 N1,4.86018189,4.86018189,4.86018189,90.0,90.0,90.0,cubic,Pm-3m,0.0,-4.89958617,-1.202770445,0.0,3.702820691,0.4075,True,114.804145
Ca3SbP,5,Ca3 Sb1 P1,5.38244377,5.38244377,5.38244377,90.0,90.0,90.0,cubic,Pm-3m,0.0,-4.133625522,-1.021370641,0.0,2.906845518,0.6583,True,155.9331688
Ca3SiO,10,Ca3 Si1 O1,6.65683,6.65683,6.65683,120.0643489,119.8736433,90.05378801,ortho,Imma,1e-07,-4.876703399,-1.598687664,0.0,2.615034647,0.0566,True,208.6840059
Ca3SnO,5,Ca3 Sn1 O1,4.82648645,4.82648645,4.82648645,90.0,90.0,90.0,cubic,Pm-3m,1.2e-06,-4.76223349,-1.76736699,0.0,3.76530011,0.0,False,112.4328641
CaAl3Au,5,Ca1 Al3 Au1,4.167006665,4.167007675,6.503251026,71.22534505,71.22534513,90.09656241,tet,I4mm,1e-07,-16.11417552,-0.55026575,0.0,5.252778173,0.0,False,100.5246075
CaBPd3,5,Ca1 B1 Pd3,4.27841036,4.27843393,4.27842164,90.0,90.0,90.0,cubic,Pm-3m,2.8e-05,-17.20711354,-0.553911794,0.0,7.848286142,0.0,False,78.31606338
CaBiO3,20,Ca1 Bi1 O3,5.75831054,6.02554523,8.330347024,90.0,90.10598141,90.0,mono,P2_1/c,0.0,-6.412126172,-2.264222731,0.0,6.826443674,0.6653,False,289.0372281
CaCO3,10,Ca1 C1 O3,6.358447833,6.358447249,6.35844589,46.37140907,46.3714226,46.37141314,trig,R-3c,0.0,-7.903637566,-2.688007889,0.0,2.703519701,4.9995,False,122.9495072
CaFeO3,20,Ca1 Fe1 O3,5.29247074,5.32339252,7.48776665,90.00018674,89.99978053,89.99997506,ortho,Pnma,15.5379632,-7.292419852,-2.228519031,0.0,4.531422983,0.0,False,210.9595825
CaGa3Pt,5,Ca1 Ga3 Pt1,6.188460025,6.188460025,6.188460025,140.1066656,140.1066656,57.69137786,tet,I4mm,0.0,-4.086931,-0.654726746,0.0,7.634904639,0.0,False,96.63892594
CaGaAu3,40,Ca1 Ga1 Au3,9.193679421,9.19358456,9.19355357,89.99964078,90.00072392,89.99886314,cubic,Pa-3,1e-07,-34.66925953,-0.622069514,0.0,11.97881888,0.0,False,777.0655254
CaGeO3,30,Ca1 Ge1 O3,7.314616387,7.557449301,8.147430831,103.4819701,94.72958118,90.10958549,tri,P-1,0.0,-7.044484095,-2.749981945,0.0,3.669381308,3.4813,False,436.382332
CaH3Pd,5,Ca1 H3 Pd1,3.70671619,3.70671619,3.70671619,90.0,90.0,90.0,cubic,Pm-3m,7.2e-06,-8.642100878,-0.569283975,0.0,4.875124009,0.0,False,50.92933492
CaHfO3,20,Ca1 Hf1 O3,5.54646636,5.72177289,7.94978423,90.0,90.0,90.0,ortho,Pnma,0.0,-9.182272448,-3.820938063,0.0,7.017975204,4.4855,True,252.2913382
CaInBr3,10,Ca1 In1 Br3,4.26679345,7.372794095,10.88832447,90.0,90.0,106.8196805,ortho,Cmcm,0.0,-3.759740196,-1.82461755,0.0,3.997038781,3.136,False,327.8737264
CaIrO3,10,Ca1 Ir1 O3,3.182001621,5.150852811,7.32723054,89.99995359,89.99999425,107.9952983,ortho,Cmcm,2.0033388,-7.239532932,-2.101949517,0.0,8.149939013,0.0,False,114.2187219
CaMoN3,10,Ca1 Mo1 N3,3.704049496,6.379600389,6.404047547,104.0936233,106.8098229,90.00000429,mono,C2/m,0.0,-8.365483229,-0.792266584,0.0,4.22045319,0.8726,False,140.0983293
CaMoO3,20,Ca1 Mo1 O3,5.526326,5.750526,7.915666603,89.38257035,90.0,90.0,mono,P2_1/c,8.0000755,-8.158404337,-2.619377736,0.0,4.859133129,1.105,True,251.5395902
CaNiH3,5,Ca1 Ni1 H3,3.50426521,3.50426521,3.50426521,90.0,90.0,90.0,cubic,Pm-3m,1e-07,-4.15538169,-0.561134515,0.0,3.928127553,0.0,False,43.03193756
CaPS3,20,Ca1 P1 S3,6.579950775,7.32515142,9.213030585,90.0,92.03948297,90.0,mono,P2_1/c,0.0,-9.265458472,-1.23638502,0.0,2.503227022,3.0848,True,443.7788177
CaPSe3,20,Ca1 P1 Se3,6.909170598,7.58328821,9.685920495,90.0,92.02960714,90.0,mono,P2_1/c,0.0,-12.84699504,-1.051984898,0.0,4.032846887,2.1335,False,507.1679982
CaReN3,20,Ca1 Re1 N3,7.343440263,7.343440263,6.214030245,75.07436504,75.07436504,83.70051548,mono,C2/c,0.0,-8.6288227,-0.735113235,0.0,5.702247562,1.8813,False,312.5301702
CaRhO3,10,Ca1 Rh1 O3,3.113141821,5.142154487,7.29758608,90.00054491,90.00018984,107.6181484,ortho,Cmcm,1.9944838,-6.93581445,-2.093056297,0.0,5.69654425,0.0,False,111.3420909
CaRuO3,20,Ca1 Ru1 O3,5.35225118,5.54761917,7.67012603,90.0,90.0,90.0,ortho,Pnma,7.9989245,-7.451465702,-2.226688614,0.0,5.516467738,0.0,False,227.7433092
CaSeO3,20,Ca1 Se1 O3,6.393451796,6.694465492,6.80623043,90.0,90.0,102.6581409,mono,P2_1/c,0.0,-6.376005911,-2.306927036,0.0,3.90344177,4.2602,False,284.2313548
CaSi3Ir,5,Ca1 Si3 Ir1,5.762805691,5.762805691,5.762805691,137.3753047,137.3753047,61.8611082,tet,I4mm,0.0,-6.058008302,-0.634010672,0.0,6.059767464,0.0,False,86.74361442
CaSi3Pt,5,Ca1 Si3 Pt1,5.759354076,5.759354076,5.759354076,136.9076574,136.9076574,62.58016051,tet,I4mm,0.0,-17.65388211,-0.684421231,0.0,6.022340465,0.0,False,88.07321688
CaSiO3,30,Ca1 Si1 O3,7.084383563,7.325270901,7.933160089,103.3979812,95.28069284,90.04923166,tri,P-1,0.0,-7.9030084,-3.448048215,0.0,2.902926206,4.8413,False,398.6826269
CaSnO3,20,Ca1 Sn1 O3,5.52398931,5.6962779,7.90708393,90.0,90.0,90.0,ortho,Pnma,0.0,-6.866365997,-2.694555047,0.0,5.520396787,2.3301,False,248.8057122
CaTcN3,10,Ca1 Tc1 N3,3.638906312,6.367023437,6.437673752,105.0711329,90.00000126,106.6044106,mono,C2/m,0.0,-12.65117169,-0.573330142,0.0,4.347663338,0.474,False,137.5727179