formula,sites,composition,a_edge (angstrom),b_edge (angstrom),c_edge (angstrom),alpha_ang (deg),beta_ang (deg),gamma_ang (deg),crystal_system,space_group,total_magnetisation (bohr),energy_per_atom (eV/atom),formation_energy (eV/atom),energy_above_hull (eV/atom),density (g/cc),band_gap (eV),direct_bandgap,volume (cubic-angstrom)
HoRu3C,5,Ho1 Ru3 C1,4.12808859,4.12808859,4.12808859,90.0,90.0,90.0,cubic,Pm-3m,4.4e-06,-8.557251256,-0.22734074,0.0,11.33391436,0.0,False,70.34723407
HoSi3Ir,5,Ho1 Si3 Ir1,5.704555446,5.704555446,5.704555446,137.2459656,137.2459656,62.05982257,tet,I4mm,0.0,-6.713060412,-0.770646865,0.0,8.670169694,0.0,False,84.53909359
HoVO3,20,Ho1 V1 O3,5.23261452,5.65391191,7.52519119,90.0,90.0,90.0,ortho,Pnma,8.0000001,-9.006434829,-3.301341118,0.0,7.872520871,0.0,False,222.6308365
IOF3,20,I1 O1 F3,5.05358546,5.44579822,11.09163673,90.0,90.0,90.0,ortho,P2_12_12_1,0.0,-4.089713606,-1.648431501,0.0,4.349737874,3.637,False,305.2507905
InBO3,10,In1 B1 O3,5.882060384,5.882060643,5.882061289,48.68871997,48.68872112,48.68872217,trig,R-3c,0.0,-7.315081527,-2.458591821,0.0,5.473290411,2.6556,False,105.3533531
InGaS3,30,In1 Ga1 S3,6.773408574,6.772367765,18.08691207,89.99981152,90.00044285,119.9871568,hex_,P6_1,0.0,-12.40483368,-0.779560963,0.0,3.892238096,2.0937,False,718.6195972
InGaSe3,30,In1 Ga1 Se3,7.058579737,7.059472485,18.97877713,90.0002276,89.99945352,119.9291293,hex_,P6_1,0.0,-16.0967653,-0.705555897,0.0,5.122929557,1.3166,True,819.5928047
InNi3N,5,In1 Ni3 N1,3.83985571,3.83985571,3.83985571,90.0,90.0,90.0,cubic,Pm-3m,3e-05,-13.67254968,-0.142051176,0.0,8.94270255,0.0,False,56.61672131
InSbS3,20,In1 Sb1 S3,3.8395774,9.40747945,13.5820799,90.0,90.0,90.0,ortho,Pnma,0.0,-14.99957946,-0.521598793,0.0,4.505408611,1.4761,False,490.5948513
InSiTe3,10,In1 Si1 Te3,7.12039536,7.120395165,7.48873665,90.0,90.0,119.9999922,trig,P-31m,0.0,-21.82700137,-0.306195786,0.0,5.309731157,0.4816,False,328.8118262
InSnCl3,10,In1 Sn1 Cl3,8.133889658,8.133889658,8.133889768,58.70701167,58.70701167,58.70700779,trig,R-3,0.0011123,-3.765207209,-1.302336093,0.0,3.056734998,3.0433,False,369.28006
K3AuO,5,K3 Au1 O1,5.22438571,5.22438571,5.22438571,90.0,90.0,90.0,cubic,Pm-3m,0.0,-3.202910128,-0.879719693,0.0,3.845922409,0.5612,False,142.59546
K3BrO,5,K3 Br1 O1,5.19026401,5.19026401,5.19026401,90.0,90.0,90.0,cubic,Pm-3m,0.0,-3.560015648,-1.564212306,0.0,2.532004578,0.8913,True,139.8196943
K3IO,5,K3 I1 O1,5.29423015,5.29423015,5.29423015,90.0,90.0,90.0,cubic,Pm-3m,0.0,-3.419062858,-1.4458463,0.0,2.911695035,1.0284,True,148.3913039
KAgBr3,10,K1 Ag1 Br3,7.427913034,7.427912658,7.42791369,61.64015932,61.64014645,61.64015786,trig,R3c,8e-07,-2.955902001,-1.1788726,0.0,4.274217928,0.0,False,300.4501718
KAgCl3,10,K1 Ag1 Cl3,7.071671229,7.07167202,7.071671844,61.04256827,61.04257136,61.04257547,trig,R3c,1.53e-05,-10.35502985,-1.188738291,0.0,3.287218952,0.0,False,255.9348163
KAgF3,20,K1 Ag1 F3,5.99687912,6.18287501,8.5032308,90.0,90.0,90.0,ortho,Pnma,7.01e-05,-4.056807444,-2.115058583,0.0,4.296927275,0.0,False,315.2824009
KAsO3,40,K1 As1 O3,4.90279138,11.38334748,11.51034733,90.0,90.0,90.0,ortho,Pbcn,0.0,-6.068010465,-1.938935411,0.0,3.350431812,3.0119,True,642.3945322
KAuI3,20,K1 Au1 I3,9.46142359,7.368523763,13.45476131,59.10163995,90.0,90.0,mono,P2_1/c,0.0,-2.682272237,-0.886814323,0.0,5.089763556,0.6459,False,804.8974507
KBeF3,20,K1 Be1 F3,4.45356696,5.41615052,11.98714706,90.0,90.0,90.0,ortho,P2_12_12_1,0.0,-5.52779316,-3.406749262,0.0,2.414464242,7.0613,False,289.1442399
KBiO3,60,K1 Bi1 O3,10.06653795,10.06653795,10.06653795,90.0,90.0,90.0,cubic,Pn-3,0.0,-5.545642486,-1.572585076,0.0,5.783549581,0.4914,True,1020.094499
KBrO3,5,K1 Br1 O3,4.394010315,4.394010476,4.394009926,85.10928319,85.1092845,85.109288,trig,R3m,0.0,-4.567074504,-1.044634649,0.0,3.30290524,3.8569,True,83.95967617
KCO3,20,K1 C1 O3,5.786966,4.005711,15.32873122,80.49497619,90.0,90.0,mono,P2_1/c,4.0017107,-6.851735725,-1.810952079,0.0,1.878370346,0.8756,False,350.4556548
KCaBr3,10,K1 Ca1 Br3,4.267215332,7.380736496,10.75417137,90.00076391,90.00054285,106.7969679,ortho,Cmcm,0.0,-3.87898141,-2.269419568,0.0,3.26612366,4.4047,True,324.2537853
KCaCl3,20,K1 Ca1 Cl3,7.20898851,7.59169634,10.45793088,90.0,90.0,90.0,ortho,Pnma,0.0,-8.79032169,-2.487546824,0.0,2.153162021,5.5615,True,572.3463649
KCaF3,20,K1 Ca1 F3,6.12777352,6.22062595,8.71579992,90.0,90.0,90.0,ortho,Pnma,0.0,-5.49500758,-3.720726279,0.0,2.722395985,6.6502,False,332.2339773
KCdCl3,20,K1 Cd1 Cl3,4.01365267,8.85064146,14.6107019,90.0,90.0,90.0,ortho,Pnma,0.0,-10.5851991,-1.669085436,0.0,3.300056922,3.5095,False,519.0218185
KCdF3,20,K1 Cd1 F3,6.18108562,6.08209058,8.64136873,90.00001605,90.0,90.0,ortho,Pnma,0.0,-4.267583105,-2.702419742,0.0,4.263088623,3.3539,True,324.8629474
KCrF3,10,K1 Cr1 F3,6.021007494,6.021007494,5.796128692,59.26580277,59.26580277,90.95246281,mono,C2/m,7.9999997,-6.233367434,-2.929596615,0.0,3.418906475,1.4898,False,143.8521843
KCuCl3,20,K1 Cu1 Cl3,4.059829343,8.716180511,13.76344897,90.0,90.0,97.11185592,mono,P2_1/c,3.9999999,-8.355593913,-1.291118587,0.0,2.87246797,0.2682,False,483.2891413
KCuF3,10,K1 Cu1 F3,5.680055154,5.680679711,5.68068068,92.48404255,118.5797755,118.5797774,tet,I4/mcm,0.000266,-4.5508758,-2.357873141,0.0,4.008852462,0.0,False,132.2511341
KGeBr3,10,K1 Ge1 Br3,5.981290952,7.42392971,8.486145859,90.0,114.5480546,90.0,mono,P2_1/m,0.0,-3.520239458,-1.387192021,0.0,3.405234404,2.9026,False,342.7646287
KGeCl3,10,K1 Ge1 Cl3,7.531836961,7.53183688,7.531836492,61.68388527,61.68387771,61.68388726,trig,R3c,0.0,-3.915682033,-1.655680521,0.0,2.310196858,2.8924,True,313.530932
KHgF3,20,K1 Hg1 F3,6.40393385,6.41619267,9.04877947,90.0,90.0,90.0,cubic,Pm-3m,0.0,-3.63507531,-2.199979577,0.0,5.300151194,0.6082,False,371.8041543
KIO3,20,K1 I1 O3,7.67246903,7.690671943,7.680980049,109.5181294,109.0969225,109.3830158,tri,P1,0.0,-4.866476068,-1.366622997,0.0,4.053475827,2.7868,True,350.6688937
KInBr3,20,K1 In1 Br3,8.60409982,8.604099958,10.87592584,90.0,90.0,119.9999986,trig,P-3,0.0,-3.279764786,-1.519488171,0.0,3.749623312,2.3376,False,697.2808898
KIrO3,60,K1 Ir1 O3,9.48725516,9.48725516,9.48725516,90.0,90.0,90.0,cubic,Pn-3,1.22e-05,-6.472615707,-1.509878324,0.0,6.517792454,0.0,False,853.9289618
KMgF3,5,K1 Mg1 F3,3.97846823,3.97846823,3.97846823,90.0,90.0,90.0,cubic,Pm-3m,0.0,-5.236904424,-3.537649096,0.0,3.174844985,6.9537,False,62.97202846
KMgH3,5,K1 Mg1 H3,3.988098,3.988098,3.988098,90.0,90.0,90.0,cubic,Pm-3m,0.0,-2.935123938,-0.345656127,0.0,1.738989885,2.458,False,63.43040221
KMnCl3,20,K1 Mn1 Cl3,3.86265975,8.80346841,14.36243149,90.0,90.0,90.0,ortho,Pnma,19.9999986,-9.684715343,-1.852932282,0.0,2.725388904,0.0,False,488.3916547
KMnF3,10,K1 Mn1 F3,5.897455214,5.897455214,5.897455214,120.0521214,119.6335875,90.27278058,ortho,Imma,9.9999996,-6.223091587,-3.017527204,0.0,3.4502457,2.4058,False,145.3773549
KNO3,20,K1 N1 O3,5.4109266,6.18542073,9.15028024,90.0,90.0,90.0,ortho,Pnma,0.0,-6.284844694,-1.422138597,0.0,2.192798407,2.9384,False,306.249426
KNbO3,5,K1 Nb1 O3,4.049923855,4.049923873,4.049924741,89.8368711,89.83687925,89.83686206,trig,R3m,0.0,-8.067439236,-2.85212768,0.0,4.499799379,2.2934,False,66.42558683
KNiCl3,30,K1 Ni1 Cl3,11.80821896,11.80821937,5.92176056,89.99999449,90.00004025,119.9995508,hex_,P6_3cm,12.0000002,-8.760471231,-1.469011673,0.0,2.844454365,0.7023,False,715.0760801
KNiF3,5,K1 Ni1 F3,4.00809624,4.00805847,4.00805988,90.0,90.0,90.0,cubic,Pm-3m,2.0,-5.166724966,-2.637536305,0.0,3.991875025,0.0,False,64.38821576
KNpO3,5,K1 Np1 O3,4.27003215,4.29310949,4.29310845,90.0,90.0,90.0,cubic,Pm-3m,1.9999989,-8.897647024,-3.11304054,0.0,6.838305034,0.0,False,78.70004291
KPO3,40,K1 P1 O3,4.55257852,10.23201105,14.02715163,79.0634855,90.0,90.0,mono,P2_1/c,0.0,-6.963813305,-2.685668052,0.0,2.444847847,5.1269,True,641.5459608
KPS3,10,K1 P1 S3,6.907587079,7.096471062,7.096471552,72.07381071,60.87663973,60.87663977,ortho,Immm,0.0,-4.749104456,-0.956720066,0.0,2.089096369,1.7149,False,264.3180622
KPSe3,120,K1 P1 Se3,14.9511113,14.9511113,19.275013,90.0,90.0,119.9999969,trig,P3_1,0.1436966,-4.206666758,-0.799751222,0.0,3.278374933,1.4182,True,3731.40401
KPaO3,5,K1 Pa1 O3,4.35600548,4.35600548,4.35600548,90.0,90.0,90.0,cubic,Pm-3m,0.0,-8.656407698,-3.552497714,0.0,6.391337032,3.0477,False,82.65426196
KSbO3,10,K1 Sb1 O3,6.84028095,6.840261049,6.840306936,46.47726357,46.47717131,46.47728063,trig,R-3,0.0,-6.069977969,-2.049127173,0.0,4.514453166,2.6808,False,153.6462401
KSiH3,20,K1 Si1 H3,5.30126752,6.87685656,8.77103648,90.0,90.0,90.0,ortho,Pnma,0.0,-5.219501882,-0.188028735,0.0,1.458386837,2.5733,False,319.7573999
KSnF3,40,K1 Sn1 F3,7.978592781,9.891077845,10.21951682,80.3808471,72.36743442,74.20170479,tri,P-1,0.0,-4.966241508,-2.791165812,0.0,3.874886943,3.5114,False,736.4129578
KSnI3,20,K1 Sn1 I3,4.70824602,10.44878157,16.99764006,90.0,90.0,90.0,ortho,Pnma,0.0,-3.066696507,-1.124100622,0.0,4.277587265,1.9381,False,836.2062838
KSrI3,10,K1 Sr1 I3,8.112890009,8.112890009,12.05344229,90.0,90.0,145.9752959,ortho,Cmcm,0.0,-3.32672278,-1.847555648,0.0,3.796254244,3.9993,False,443.916621
KTaO3,5,K1 Ta1 O3,3.99488137,3.99488137,3.99488137,90.0,90.0,90.0,cubic,Pm-3m,0.0,-8.640023914,-3.071587858,0.0,6.981426042,2.0995,False,63.75462003
KTaTe3,100,K1 Ta1 Te3,14.268809,7.986365,31.32861614,89.92458311,90.0,90.0,mono,P2_1/c,0.00505,-5.304898344,-0.819255355,0.0,5.607998538,0.4922,True,3570.078081
KTcO3,5,K1 Tc1 O3,3.87414195,3.87414195,3.87414195,90.0,90.0,90.0,cubic,Pm-3m,2.1e-06,-7.249670994,-1.982492657,0.0,5.285921583,0.0,False,58.14690296
KUO3,5,K1 U1 O3,4.29886276,4.29886276,4.29886276,90.0,90.0,90.0,cubic,Pm-3m,1.0,-8.78844244,-3.33510989,0.0,6.795779335,0.4454,False,79.44393398
KVCl3,10,K1 V1 Cl3,6.914956127,6.914956434,6.16009058,90.0,90.0,119.9994212,hex_,P6_3/mmc,6.0000003,-9.548923211,-1.835891939,0.0,2.556929671,0.3342,False,255.0933518
KVF3,5,K1 V1 F3,4.12938738,4.12940323,4.1292904,90.0,90.0,90.0,cubic,Pm-3m,2.9999995,-6.230437906,-3.040495367,0.0,3.46754021,2.0759,False,70.41227003
KVO3,20,K1 V1 O3,5.1974608,5.65515664,10.65824401,90.0,90.0,90.0,ortho,Pbcm,0.0,-7.418503009,-2.406671247,0.0,2.926754043,3.046,False,313.271957
KZnF3,5,K1 Zn1 F3,4.04741679,4.04741679,4.04741679,90.0,90.0,90.0,cubic,Pm-3m,0.0,-4.438915822,-2.813805775,0.0,4.044777029,3.6954,False,66.30309275
La3AlN,5,La3 Al1 N1,5.09751599,5.09752329,5.09751495,90.0,90.0,90.0,cubic,Pm-3m,0.0349912,-21.92009742,-0.901059497,0.0,5.737967673,0.0,False,132.4574298
La3AlO,5,La3 Al1 O1,5.03101297,5.03100776,5.0310088,90.0,90.0,90.0,cubic,Pm-3m,4.78e-05,-6.174222742,-1.473911112,0.0,5.994536311,0.0,False,127.3401922
La3InC,5,La3 In1 C1,5.24935926,5.24935926,5.24935926,90.0,90.0,90.0,cubic,Pm-3m,4.3e-06,-5.677746706,-0.318574596,0.0,6.239730051,0.0,False,144.6501503
La3InGe,40,La3 In1 Ge1,12.38399439,11.95846731,11.94275084,62.40709727,58.85955349,58.73628554,ortho,Fmm2,6.9071333,-25.88049741,-0.743515691,0.0,6.434968402,0.0,False,1247.25425
La3InN,5,La3 In1 N1,5.13785256,5.13783273,5.13784525,90.0,90.0,90.0,cubic,Pm-3m,0.00131,-25.24691144,-1.058575107,0.0,6.679346334,0.0,False,135.6258952
La3PbC,5,La3 Pb1 C1,5.23916418,5.23915898,5.23918083,90.0,90.0,90.0,cubic,Pm-3m,0.1915083,-5.978348818,-0.428482043,0.0,7.342931274,0.0,False,143.8093004
La3SnC,5,La3 Sn1 C1,5.22029957,5.22029957,5.22029957,90.0,90.0,90.0,cubic,Pm-3m,0.0492238,-6.099530596,-0.490278864,0.0,6.389944026,0.0,False,142.2611378
La3SnN,5,La3 Sn1 N1,5.10650318,5.10651462,5.10650942,90.0,90.0,90.0,cubic,Pm-3m,9.3e-06,-25.79436996,-1.172514945,0.0,6.851593696,0.0,False,133.1595515
NdNiSb3,60,Nd1 Ni1 Sb3,6.2375653,12.72674041,18.34531071,90.0,90.0,90.0,ortho,Pbcm,1.4e-06,-5.320691463,-0.733633897,0.0,7.774741904,0.0,False,1456.321841
NdRhO3,20,Nd1 Rh1 O3,5.36174282,5.83175504,7.7935672,90.0,90.0,90.0,ortho,Pnma,0.0,-7.890430088,-2.495162424,0.0,8.044591809,0.6487,False,243.6921484
NdScO3,20,Nd1 Sc1 O3,5.58038856,5.80995328,8.02978969,90.0,90.0,90.0,ortho,Pnma,0.0,-9.085363889,-3.896463978,0.0,6.051672321,4.3025,True,260.3402098
NdScS3,20,Nd1 Sc1 S3,6.50541219,7.15932821,9.582129,90.0,90.0,90.0,ortho,Pnma,0.0,-15.28055514,-2.296256424,0.0,4.247595643,1.8593,True,446.2817269
NdSi3Ir,5,Nd1 Si3 Ir1,5.757777267,5.757777267,5.757777267,136.7249867,136.7249867,62.86146372,tet,I4mm,0.0,-22.48301351,-0.86328227,0.0,7.88681485,0.0,False,88.58005886
NdSi3Os,5,Nd1 Si3 Os1,5.805284466,5.805284466,5.805284466,137.1339609,137.1339609,62.23200106,tet,I4mm,0.0,-22.40681815,-0.661911827,0.0,7.772242947,0.0,False,89.46130959
NdSi3Rh,5,Nd1 Si3 Rh1,5.744010682,5.744010682,5.744010682,136.8124903,136.8124903,62.72668253,tet,I4mm,0.0,-6.479948006,-0.798266127,0.0,6.276996167,0.0,False,87.67080212
NdSiPt3,5,Nd1 Si1 Pt3,4.09760065,4.09760065,5.45224093,90.0,90.0,90.0,tet,P4mm,2e-07,-6.736762378,-1.055389293,0.0,13.74178068,0.0,False,91.54493038
NdSn3Ru,40,Nd1 Sn3 Ru1,9.75674486,9.75662974,9.75657992,90.0001905,90.00017118,89.99977737,cubic,Pm-3n,5.3e-06,-5.691568479,-0.477315371,0.0,8.602614432,0.0,False,928.7575959
NdVO3,20,Nd1 V1 O3,5.44723174,5.67955965,7.71246632,90.0,90.0,90.0,ortho,Pnma,7.9999996,-8.960235622,-3.221048318,0.0,6.769493594,1.0341,True,238.607339
NiCO3,10,Ni1 C1 O3,5.54107893,5.54107561,5.541064912,48.98950167,48.98953696,48.98944422,trig,R-3c,3.9999998,-7.625219773,-1.654682736,0.0,4.432170194,0.0,False,88.94505301
NiPbO3,10,Ni1 Pb1 O3,5.391244267,5.392400659,5.614263966,90.0013138,61.30477485,120.002273,trig,R3c,3.9234011,-6.15665555,-1.289322197,0.0,8.861971356,0.0,False,117.6328028
NiSeO3,20,Ni1 Se1 O3,4.94119162,5.87229752,7.49794122,90.00024741,89.99996045,90.00011801,ortho,Pnma,7.9999976,-6.079090575,-1.25510434,0.0,5.66794995,0.0,False,217.5613669
OsPbO3,20,Os1 Pb1 O3,7.309274686,7.309673325,7.309817577,60.00259407,60.00078554,60.00014,cubic,Fd-3m,0.0001834,-7.357330362,-1.400550859,0.0,10.7130086,0.0,False,276.1692649
PBr3O,20,P1 Br3 O1,6.23327798,9.45171737,10.00192486,90.0,90.0,90.0,ortho,Pnma,0.0,-4.309834908,-1.254980081,0.0,3.231495051,3.0735,False,589.265221
PCl3O,20,P1 Cl3 O1,5.84665617,9.43054642,9.21331222,90.0,90.0,90.0,ortho,Pnma,0.0,-4.768834682,-1.587025779,0.0,2.004851213,4.4933,True,507.9958922
PPbS3,20,P1 Pb1 S3,7.54168117,6.720128832,11.40176682,55.58233766,90.0,90.0,mono,P2_1/c,0.0,-5.033612315,-0.724972456,0.0,4.659023174,2.3061,False,476.6942522
PPbSe3,20,P1 Pb1 Se3,7.75459885,7.041006259,11.9151436,55.47624294,90.0,90.0,mono,P2_1/c,0.0,-22.05607513,-0.411696906,0.0,5.886926384,1.6645,False,535.9980942
PaAgO3,5,Pa1 Ag1 O3,4.3149707,4.3149707,4.3149707,90.0,90.0,90.0,cubic,Pm-3m,0.0,-8.276618826,-2.830395251,0.0,7.996811026,0.915,True,80.34031926
PaBr3O,10,Pa1 Br3 O1,9.077382622,9.077382622,9.888127456,63.04330053,63.04330053,25.54622802,mono,C2/m,0.0,-6.42281491,-2.542195352,0.0,5.196213011,1.749,False,311.0968978
PaHgO3,5,Pa1 Hg1 O3,4.34288662,4.34288662,4.34288662,90.0,90.0,90.0,cubic,Pm-3m,3.67e-05,-7.739027202,-2.799456756,0.0,9.72332053,0.0,False,81.90972617
PaTlO3,5,Pa1 Tl1 O3,4.37641728,4.37641728,4.37641728,90.0,90.0,90.0,cubic,Pm-3m,0.0,-8.519211286,-3.167280824,0.0,9.576684617,2.6427,False,83.82164362
PbCO3,20,Pb1 C1 O3,5.18693591,6.06501914,8.54295691,90.0,90.0,90.0,ortho,Pnma,0.0,-7.36626524,-1.809226124,0.0,6.604025394,3.3293,True,268.751733
PbSeO3,40,Pb1 Se1 O3,8.07301543,8.848565589,9.189320976,76.60234519,90.0,90.0,mono,P2_1/c,0.0,-5.867063025,-1.456574712,0.0,6.951557214,3.3672,False,638.5708737
PdSeO3,10,Pd1 Se1 O3,3.915402921,6.170011595,6.445083638,90.00388517,90.00382256,96.54886135,mono,P2_1/m,0.0,-5.736829246,-1.032893985,0.0,5.010619907,1.0589,False,154.6848995
Pr3AlN,5,Pr3 Al1 N1,5.0424066,5.0424066,5.0424066,90.0,90.0,90.0,cubic,Pm-3m,0.0035175,-21.66038659,-0.845842965,0.0,6.005968977,0.0,False,128.2075461
Pr3InN,5,Pr3 In1 N1,5.07883424,5.07883424,5.07883424,90.0,90.0,90.0,cubic,Pm-3m,0.0010523,-24.9831971,-0.999355071,0.0,6.991011548,0.0,False,131.0062805
Pr3InO,5,Pr3 In1 O1,5.01386593,5.01386074,5.01386074,90.0,90.0,90.0,cubic,Pm-3m,8.9e-06,-5.929620028,-1.510910203,0.0,7.292578793,0.0,False,126.0425704
Pr3SnN,5,Pr3 Sn1 N1,5.05045937,5.05046559,5.05046559,90.0,90.0,90.0,cubic,Pm-3m,3.63e-05,-6.330217394,-0.983364599,0.0,7.159657733,0.0,False,128.8230908
PrAl3Ag,5,Pr1 Al3 Ag1,4.305298048,4.305298048,6.325608988,70.13945489,70.13946475,90.03529006,tet,I4mm,0.0,-4.185117418,-0.410090093,0.0,5.324966167,0.0,False,102.8201302
PrAl3Cu,5,Pr1 Al3 Cu1,6.097226883,6.097226883,6.097226883,139.33091,139.33091,58.87063967,tet,I4mm,0.0,-12.60127271,-0.511863236,0.0,4.970010434,0.0,False,95.35492455
PrAlO3,10,Pr1 Al1 O3,5.313161821,5.313161678,5.313160873,60.4327145,60.43271113,60.43272144,trig,R-3c,0.0,-8.332834387,-3.655848326,0.0,6.694744447,4.1325,False,107.0957811
PrBO3,20,Pr1 B1 O3,5.07421834,5.77535461,8.16741715,90.0,90.0,90.0,ortho,Pnma,0.0,-8.710246638,-3.446497389,0.0,5.542315603,4.6526,True,239.3495105
PrBPt3,5,Pr1 B1 Pt3,4.03625293,4.03625293,5.10236568,90.0,90.0,90.0,tet,P4mm,0.0,-6.784278456,-0.846625818,0.0,14.72214065,0.0,False,83.12436244
PrBRh3,5,Pr1 B1 Rh3,4.24621053,4.24624226,4.24620336,90.0,90.0,90.0,cubic,Pm-3m,0.0179892,-7.381872872,-0.668315504,0.0,9.986435175,0.0,False,76.56090895
PrBS3,20,Pr1 B1 S3,7.66742708,6.02901654,8.97746712,90.0,90.0,90.0,ortho,Pna2_1,0.0,-6.328215389,-1.550227003,0.0,3.967889557,2.4441,True,415.0017737
PrCoGe3,5,Pr1 Co1 Ge3,5.787387694,5.787387694,5.787387694,136.2953947,136.2953947,63.52397956,tet,I4mm,7.6e-06,-5.721135752,-0.561541403,0.0,7.595181891,0.0,False,91.3352983
PrCoO3,20,Pr1 Co1 O3,5.40230677,5.34896231,7.59490712,90.0,90.0,90.0,ortho,Pnma,2e-07,-7.851972208,-2.497417969,0.0,7.50079971,0.0,False,219.4680207
PrCrO3,20,Pr1 Cr1 O3,5.46700644,5.52184358,7.7524912,90.0,90.0,90.0,ortho,Pnma,12.0000002,-8.980136609,-3.121656221,0.0,6.837139434,2.0419,True,234.0318509
PrCrSe3,20,Pr1 Cr1 Se3,3.97378937,8.18812469,13.77453414,90.0,90.0,90.0,ortho,Pnma,11.9954115,-6.479408272,-1.4921576,0.0,6.369317066,0.0,False,448.1941782
PrErS3,40,Pr1 Er1 S3,3.96697321,11.0433063,21.5370807,78.58082629,90.0,90.0,mono,P2_1/m,0.0,-19.87069783,-2.383820075,0.0,5.808271668,0.6393,True,924.8304559
PrFeGe3,5,Pr1 Fe1 Ge3,5.826913979,5.826913979,5.826913979,136.6352255,136.6352255,62.99978067,tet,I4mm,5.08e-05,-5.916397888,-0.489482641,0.0,7.4760963,0.0,False,92.10423563
PrFeO3,20,Pr1 Fe1 O3,5.49878697,5.63563068,7.82389895,90.0,90.0,90.0,ortho,Pnma,19.9690725,-8.378956726,-2.757081589,0.0,6.705028764,1.0793,False,242.4558416
PrGa3Au,5,Pr1 Ga3 Au1,4.325099194,4.325097714,6.184387706,69.59754446,69.59753927,90.10098336,tet,I4mm,1e-07,-4.038639726,-0.607911421,0.0,9.027664635,0.0,False,100.62255
PrGa3Pd,5,Pr1 Ga3 Pd1,6.127424246,6.127424246,6.127424246,139.515171,139.515171,58.5901875,tet,I-4m2,0.0,-4.497758418,-0.685830151,0.0,7.890177266,0.0,False,96.07268576
PrGa3Pt,5,Pr1 Ga3 Pt1,6.144710443,6.144710443,6.144710443,139.8260152,139.8260152,58.1175652,tet,I-4m2,0.0,-4.71320457,-0.723026001,0.0,9.460611338,0.0,False,95.68732132
PrGe3Rh,5,Pr1 Ge3 Rh1,5.916428591,5.916428591,5.916428591,136.1819902,136.1819902,63.69910077,tet,I4mm,0.0,-5.906688374,-0.700915795,0.0,7.82603097,0.0,False,97.97123687
PrLuS3,10,Pr1 Lu1 S3,6.577864898,6.577864898,9.49266203,90.0,90.0,145.6458729,ortho,Cmcm,0.0,-20.70885352,-2.391086762,0.0,5.904416369,0.785,False,231.7782857
PrLuSe3,10,Pr1 Lu1 Se3,4.0329571,6.851853697,9.9481706,90.0,90.0,107.1153746,ortho,Cmcm,0.0,-24.27343904,-2.189735595,0.0,6.987287394,0.4935,False,262.7259017
PrMnO3,20,Pr1 Mn1 O3,5.47926694,5.57528151,7.78248656,90.0,90.0,90.0,ortho,Pnma,15.9999997,-8.703889929,-2.943615976,0.0,6.812606999,0.057,False,237.7429456
PrNiO3,20,Pr1 Ni1 O3,5.37445976,5.42801121,7.63202038,90.0,90.0,90.0,ortho,Pnma,3.9996803,-7.490565825,-2.406667594,0.0,7.386578894,0.0,False,222.6460901
PrNiSb3,60,Pr1 Ni1 Sb3,6.25385066,12.82277019,18.3944112,90.0,90.0,90.0,ortho,Pbcm,3e-07,-5.326100304,-0.733577933,0.0,7.630835534,0.0,False,1475.078917